TITLE="fun3d_case_title"
VARIABLES="Iteration" "R_1" "R_2" "R_3" "R_4" "R_5" "C_L" "C_D" "C_M_x" "C_M_y" "C_M_z" "Wall Time" "C_x" "C_y" "C_z" "C_Lp" "C_Dp" "C_Lv" "C_Dv" "C_M_xp" "C_M_yp" "C_M_zp" "C_M_xv" "C_M_yv" "C_M_zv" "C_xp" "C_yp" "C_zp" "C_xv" "C_yv" "C_zv"
ZONE  I=200 F=POINT
1  0.0000000000E+00  0.0000000000E+00  0.0000000000E+00  0.0000000000E+00  0.0000000000E+00  0.0000000000E+00  0.0000000000E+00  0.0000000000E+00  0.0000000000E+00  0.0000000000E+00  0.0000000000E+00  0.0000000000E+00  0.0000000000E+00  0.0000000000E+00  0.0000000000E+00  0.0000000000E+00  0.0000000000E+00  0.0000000000E+00  0.0000000000E+00  0.0000000000E+00  0.0000000000E+00  0.0000000000E+00  0.0000000000E+00  0.0000000000E+00  0.0000000000E+00  0.0000000000E+00  0.0000000000E+00  0.0000000000E+00  0.0000000000E+00  0.0000000000E+00
2 -0.1616746687E-38  0.1140316788E-39 -0.2474585794E-39  0.4335126507E-39 -0.7399993378E-35  0.3992781389E-33  0.2937793301E-36  0.5036982987E-34 -0.1256303739E-32 -0.3011184353E-35  0.0000000000E+00  0.2937793301E-36 -0.9819583534E-36  0.3992781389E-33  0.3992406233E-33  0.2483980304E-36  0.3751552257E-37  0.4538129968E-37  0.5022151338E-34 -0.1256106176E-32 -0.2964669270E-35  0.1483164897E-36 -0.1975627588E-36 -0.4651508238E-37  0.2483980304E-36 -0.9779561181E-36  0.3992406233E-33  0.4538129968E-37 -0.4002235325E-38  0.3751552257E-37
3  0.4819944590E-36 -0.8130849015E-35 -0.2411992938E-35 -0.4692175230E-35  0.9952398698E-33  0.3936577115E-32 -0.6171147224E-35  0.1361040045E-32 -0.1036491312E-31  0.5980966339E-33  0.0000000000E+00 -0.6171147224E-35  0.1864742103E-33  0.3936577115E-32  0.3936747706E-32 -0.6351251008E-35 -0.1705913177E-36  0.1801037837E-36  0.1360915207E-32 -0.1036513153E-31  0.5981116954E-33  0.1248385710E-36  0.2184133777E-36 -0.1506149685E-37 -0.6351251008E-35  0.1864746372E-33  0.3936747706E-32  0.1801037837E-36 -0.4268208300E-39 -0.1705913177E-36
4  0.7575517890E-35  0.3218652975E-35  0.3031431338E-36 -0.6732068517E-35  0.5187079575E-33  0.2272048473E-32 -0.1196821744E-35  0.6227784561E-33 -0.7052230813E-32  0.2721806412E-33  0.0000000000E+00 -0.1196821744E-35  0.8303564495E-34  0.2272048473E-32  0.2272218159E-32 -0.1590058518E-35 -0.1696868861E-36  0.3932367739E-36  0.6226352302E-33 -0.7052619630E-32  0.2722320372E-33  0.1432258958E-36  0.3888169862E-36 -0.5139607313E-37 -0.1590058518E-35  0.8303245423E-34  0.2272218159E-32  0.3932367739E-36  0.3190722543E-38 -0.1696868861E-36
5  0.5732393899E-35  0.1535389095E-35  0.1182467156E-35 -0.4922752877E-36  0.6000882582E-33 -0.4037768617E-32  0.1708857614E-35 -0.1436998612E-32  0.1171137698E-31  0.2474350039E-33  0.0000000000E+00  0.1708857614E-35  0.6636132810E-34 -0.4037768617E-32 -0.4037918157E-32  0.5108001495E-36  0.1495403768E-36  0.1198057465E-35 -0.1437229712E-32  0.1171169732E-31  0.2477099232E-33  0.2311009494E-36 -0.3203371241E-36 -0.2749193087E-36  0.5108001495E-36  0.6633753969E-34 -0.4037918157E-32  0.1198057465E-35  0.2378840807E-37  0.1495403768E-36
6  0.8646950115E-35  0.6561000569E-35  0.2148621852E-36  0.9762031527E-35  0.4872399023E-33 -0.1437785973E-31  0.3952297564E-35 -0.4175550676E-32  0.3240195320E-31  0.3666318031E-33  0.0000000000E+00  0.3952297564E-35  0.1136793711E-33 -0.1437785973E-31 -0.1437902731E-31 -0.9494335582E-37  0.1167580380E-35  0.4047240920E-35 -0.4175822157E-32  0.3240562587E-31  0.3669120893E-33  0.2714802525E-36 -0.3672669547E-35 -0.2802861703E-36 -0.9494335582E-37  0.1136204419E-33 -0.1437902731E-31  0.4047240920E-35  0.5892917750E-37  0.1167580380E-35
7  0.1461103218E-34  0.2295918366E-35  0.6284779404E-36  0.4623016749E-35  0.2885666427E-33 -0.4817102636E-32  0.5855873213E-35 -0.1817504747E-32  0.6897330319E-32  0.4526380803E-33  0.0000000000E+00  0.5855873213E-35  0.1537244574E-33 -0.4817102636E-32 -0.4818668796E-32 -0.1242869796E-35  0.1566159577E-35  0.7098743009E-35 -0.1817804533E-32  0.6902582420E-32  0.4532431767E-33  0.2997860505E-36 -0.5252100951E-35 -0.6050963808E-36 -0.1242869796E-35  0.1536265756E-33 -0.4818668796E-32  0.7098743009E-35  0.9788182597E-37  0.1566159577E-35
8  0.1421439513E-34  0.3917773783E-35 -0.1854440397E-36 -0.4302662149E-36  0.1000891404E-33  0.8511410927E-32  0.6674856365E-35  0.8925495058E-33 -0.3939749424E-31  0.4435372323E-33  0.0000000000E+00  0.6674856365E-35  0.1578161648E-33  0.8511410927E-32  0.8510466865E-32 -0.1467327174E-35  0.9440626095E-36  0.8142183539E-35  0.8923254415E-33 -0.3939436796E-31  0.4440183614E-33  0.2240642653E-36 -0.3126277899E-35 -0.4811290938E-36 -0.1467327174E-35  0.1576496072E-33  0.8510466865E-32  0.8142183539E-35  0.1665576093E-36  0.9440626095E-36
9  0.1041067962E-34  0.2835675770E-35  0.5585390306E-36  0.4052870564E-35  0.3680313546E-34  0.8190936006E-32  0.6912810101E-35  0.1332731519E-32 -0.3948485358E-31  0.4164266122E-33  0.0000000000E+00  0.6912810101E-35  0.1556614787E-33  0.8190936006E-32  0.8190429202E-32 -0.1638928791E-35  0.5068042684E-36  0.8551738892E-35  0.1332566923E-32 -0.3948344748E-31  0.4168530400E-33  0.1645961557E-36 -0.1406104124E-35 -0.4264277334E-36 -0.1638928791E-35  0.1554512754E-33  0.8190429202E-32  0.8551738892E-35  0.2102032335E-36  0.5068042684E-36
10  0.7895855181E-35  0.4442968298E-35  0.7251667243E-36  0.4348723269E-36  0.3981443808E-34  0.8041614443E-32  0.7068524156E-35  0.1361141509E-32 -0.3571647984E-31  0.4108037903E-33  0.0000000000E+00  0.7068524156E-35  0.1590109579E-33  0.8041614443E-32  0.8041315166E-32 -0.2044293288E-35  0.2992761717E-36  0.9112817444E-35  0.1361016812E-32 -0.3571587640E-31  0.4112336840E-33  0.1246970121E-36 -0.6034362416E-36 -0.4298937306E-36 -0.2044293288E-35  0.1587759078E-33  0.8041315166E-32  0.9112817444E-35  0.2350501172E-36  0.2992761717E-36
11  0.5098798144E-35  0.5779028370E-35  0.4264266289E-36  0.3084526266E-35  0.3206854558E-34  0.7678046085E-32  0.7474228211E-35  0.1091384702E-32 -0.3198814714E-31  0.3992990074E-33  0.0000000000E+00  0.7474228211E-35  0.1576547783E-33  0.7678046085E-32  0.7677832618E-32 -0.2268297048E-35  0.2134670370E-36  0.9742525259E-35  0.1091284497E-32 -0.3198783690E-31  0.3997797201E-33  0.1002055864E-36 -0.3102447924E-36 -0.4807126836E-36 -0.2268297048E-35  0.1574032377E-33  0.7677832618E-32  0.9742525259E-35  0.2515406234E-36  0.2134670370E-36
12  0.4215808732E-35  0.5117970897E-35  0.4611306133E-36  0.2910460434E-35  0.2960738981E-34  0.6372440266E-32  0.8133461211E-35  0.7375004722E-33 -0.2700464429E-31  0.3762420459E-33  0.0000000000E+00  0.8133461211E-35  0.1503595935E-33  0.6372440266E-32  0.6372301234E-32 -0.2219768959E-35  0.1390323395E-36  0.1035323017E-34  0.7374151353E-33 -0.2700457433E-31  0.3767861087E-33  0.8533688614E-37 -0.6996008141E-37 -0.5440628439E-36 -0.2219768959E-35  0.1500913685E-33  0.6372301234E-32  0.1035323017E-34  0.2682249486E-36  0.1390323395E-36
13  0.2949620034E-35  0.2797541378E-35  0.4981059354E-36  0.1319926476E-35  0.2462547076E-34  0.5472211095E-32  0.8884280105E-35  0.5523608089E-33 -0.2382240015E-31  0.3635101012E-33  0.0000000000E+00  0.8884280105E-35  0.1457723265E-33  0.5472211095E-32  0.5472150009E-32 -0.2160587255E-35  0.6108596883E-37  0.1104486736E-34  0.5522876265E-33 -0.2382258411E-31  0.3641316127E-33  0.7318237162E-37  0.1839570484E-36 -0.6215115116E-36 -0.2160587255E-35  0.1454860124E-33  0.5472150009E-32  0.1104486736E-34  0.2863140762E-36  0.6108596883E-37
14  0.2425381183E-35  0.1237221500E-35  0.4117917775E-36  0.2852841770E-35  0.2143136854E-34  0.4758693100E-32  0.9716839982E-35  0.3967816944E-33 -0.2125792692E-31  0.3539216932E-33  0.0000000000E+00  0.9716839982E-35  0.1421687081E-33  0.4758693100E-32  0.4758703120E-32 -0.2101848401E-35 -0.1001963787E-37  0.1181868838E-34  0.3967200906E-33 -0.2125834402E-31  0.3546260502E-33  0.6160381701E-37  0.4170980538E-36 -0.7043569194E-36 -0.2101848401E-35  0.1418626579E-33  0.4758703120E-32  0.1181868838E-34  0.3060502235E-36 -0.1001963787E-37
15  0.3359842252E-35  0.2270207503E-36  0.6567211605E-36  0.5392238563E-36 -0.1296891264E-32  0.3401326575E-31  0.1763418162E-33 -0.1541696457E-30 -0.5652714081E-30  0.6211149342E-33  0.0000000000E+00  0.1763418162E-33  0.2606774413E-33  0.3401326575E-31  0.3399944547E-31  0.2056449408E-35  0.1382027251E-34  0.1742853668E-33 -0.1541766748E-30 -0.5652353864E-30  0.6331226632E-33  0.7029027346E-35 -0.3602164867E-34 -0.1200772906E-34  0.2056449408E-35  0.2586543197E-33  0.3399944547E-31  0.1742853668E-33  0.2023121687E-35  0.1382027251E-34
16 -0.1930273016E-33 -0.3356262882E-35 -0.1021486227E-35 -0.1153390959E-33  0.6196585834E-33  0.2419293782E-30  0.1632926787E-33  0.3817145999E-31 -0.1007188154E-29  0.6263730755E-33  0.0000000000E+00  0.1632926787E-33  0.2608130165E-33  0.2419293782E-30  0.2419213389E-30 -0.4500165552E-35  0.8039263467E-35  0.1677928442E-33  0.3816654580E-31 -0.1007172222E-29  0.6334275210E-33  0.4914188511E-35 -0.1593220841E-34 -0.7054445504E-35 -0.4500165552E-35  0.2567208697E-33  0.2419213389E-30  0.1677928442E-33  0.4092146811E-35  0.8039263467E-35
17  0.1519780219E-35 -0.9557933323E-34 -0.1421134313E-34  0.2625878801E-34  0.3554106938E-34  0.1538673135E-30  0.1435224035E-33  0.6812008218E-31 -0.6276865093E-30  0.6224370679E-33  0.0000000000E+00  0.1435224035E-33  0.2587242837E-33  0.1538673135E-30  0.1538661708E-30 -0.7447333281E-35  0.1142644041E-35  0.1509697367E-33  0.6811872917E-31 -0.6276916934E-30  0.6262461554E-33  0.1353010379E-35  0.5184144933E-35 -0.3809087527E-35 -0.7447333281E-35  0.2536645538E-33  0.1538661708E-30  0.1509697367E-33  0.5059729959E-35  0.1142644041E-35
18  0.8479705766E-34 -0.4631389272E-34 -0.6640547243E-35 -0.1364720789E-33 -0.4078139217E-34  0.1061189870E-30  0.1275209769E-33  0.4477515890E-31 -0.3602173974E-30  0.6159152868E-33  0.0000000000E+00  0.1275209769E-33  0.2563186931E-33  0.1061189870E-30  0.1061214665E-30 -0.1017502393E-34 -0.2479452650E-35  0.1376960008E-33  0.4477562911E-31 -0.3602320107E-30  0.6197352289E-33 -0.4702093040E-36  0.1461331494E-34 -0.3819942078E-35 -0.1017502393E-34  0.2515600913E-33  0.1061214665E-30  0.1376960008E-33  0.4758601779E-35 -0.2479452650E-35
19  0.9125506304E-34  0.1410916961E-35  0.1012111254E-34 -0.7945972788E-34  0.3346994883E-34  0.7282550395E-31  0.1150699531E-33  0.2171615749E-31 -0.1769525145E-30  0.6105340637E-33  0.0000000000E+00  0.1150699531E-33  0.2544266121E-33  0.7282550395E-31  0.7282958057E-31 -0.1179538761E-34 -0.4076612970E-35  0.1268653407E-33  0.2171725161E-31 -0.1769699469E-30  0.6157481393E-33 -0.1094129211E-35  0.1743242678E-34 -0.5214075609E-35 -0.1179538761E-34  0.2504137693E-33  0.7282958057E-31  0.1268653407E-33  0.4012842798E-35 -0.4076612970E-35
20  0.9184306464E-34  0.2447954697E-34  0.1234933710E-34  0.9817272601E-34  0.1162598694E-33  0.2569047043E-31  0.1045629011E-33  0.5108721667E-32 -0.1254228441E-32  0.6055346745E-33  0.0000000000E+00  0.1045629011E-33  0.2526823798E-33  0.2569047043E-31  0.2569533556E-31 -0.1212220827E-34 -0.4865123878E-35  0.1166851093E-33  0.5110029929E-32 -0.1272659951E-32  0.6127392176E-33 -0.1308262444E-35  0.1843150991E-34 -0.7204543073E-35 -0.1212220827E-34  0.2495194195E-33  0.2569533556E-31  0.1166851093E-33  0.3162960288E-35 -0.4865123878E-35
21  0.8679977303E-34  0.1367136143E-34  0.2923604541E-35  0.8243372937E-34  0.1231550439E-33 -0.3320533021E-32  0.9730656743E-34 -0.1872249405E-32  0.9182936163E-31  0.6026123228E-33  0.0000000000E+00  0.9730656743E-34  0.2516767187E-33 -0.3320533021E-32 -0.3315443736E-32 -0.1192382416E-34 -0.5089285040E-35  0.1092303916E-33 -0.1870952773E-32  0.9181114273E-31  0.6112298439E-33 -0.1296632207E-35  0.1821890823E-34 -0.8617521037E-35 -0.1192382416E-34  0.2490127088E-33 -0.3315443736E-32  0.1092303916E-33  0.2664009891E-35 -0.5089285040E-35
22  0.6146203165E-34 -0.6319776293E-35 -0.9810432233E-36  0.5553301098E-34  0.1077979899E-33 -0.2691063737E-31  0.9251807234E-34 -0.5176151916E-32  0.1555239580E-30  0.6013746215E-33  0.0000000000E+00  0.9251807234E-34  0.2512954112E-33 -0.2691063737E-31 -0.2690540314E-31 -0.1151090756E-34 -0.5234234267E-35  0.1040289799E-33 -0.5174895344E-32  0.1555058422E-30  0.6108087668E-33 -0.1256571765E-35  0.1811585227E-34 -0.9434145336E-35 -0.1151090756E-34  0.2488553275E-33 -0.2690540314E-31  0.1040289799E-33  0.2440083747E-35 -0.5234234267E-35
23  0.3980964966E-34 -0.1110873432E-34 -0.1084163013E-35  0.1567497419E-34  0.8537970235E-34 -0.4530359569E-31  0.8947460077E-34 -0.7309523358E-32  0.2011640691E-30  0.6007367619E-33  0.0000000000E+00  0.8947460077E-34  0.2511242388E-33 -0.4530359569E-31 -0.4529824340E-31 -0.1112037594E-34 -0.5352290099E-35  0.1005949767E-33 -0.7308278451E-32  0.2011459657E-30  0.6106174923E-33 -0.1244906803E-35  0.1810348864E-34 -0.9880730332E-35 -0.1112037594E-34  0.2487719361E-33 -0.4529824340E-31  0.1005949767E-33  0.2352302738E-35 -0.5352290099E-35
24  0.2493122895E-34 -0.3005959877E-35 -0.1168766993E-35 -0.1352839768E-34  0.6897011639E-34 -0.5867615145E-31  0.8749484986E-34 -0.9137167588E-32  0.2343942380E-30  0.6002660934E-33  0.0000000000E+00  0.8749484986E-34  0.2510041183E-33 -0.5867615145E-31 -0.5867074419E-31 -0.1085165121E-34 -0.5407264914E-35  0.9834650107E-34 -0.9135910097E-32  0.2343762747E-30  0.6104159201E-33 -0.1257490968E-35  0.1796328772E-34 -0.1014982665E-34 -0.1085165121E-34  0.2486964406E-33 -0.5867074419E-31  0.9834650107E-34  0.2307677683E-35 -0.5407264914E-35
25  0.1745748128E-34  0.3993263618E-35 -0.1774408696E-35 -0.2574334219E-34  0.5226392799E-34 -0.6677112417E-31  0.8620000224E-34 -0.1067002374E-31  0.2554565136E-30  0.5998784606E-33  0.0000000000E+00  0.8620000224E-34  0.2509025222E-33 -0.6677112417E-31 -0.6676571397E-31 -0.1071672214E-34 -0.5410202878E-35  0.9691672438E-34 -0.1066873992E-31  0.2554388038E-30  0.6102142435E-33 -0.1283828162E-35  0.1770981369E-34 -0.1033578282E-34 -0.1071672214E-34  0.2486323445E-33 -0.6676571397E-31  0.9691672438E-34  0.2270177732E-35 -0.5410202878E-35
26  0.1329954093E-34  0.3502042348E-35 -0.2442542407E-35 -0.2491137369E-34  0.3765735392E-34 -0.7093761474E-31  0.8526788203E-34 -0.1189130027E-31  0.2676030127E-30  0.5995467121E-33  0.0000000000E+00  0.8526788203E-34  0.2508126001E-33 -0.7093761474E-31 -0.7093223092E-31 -0.1068315421E-34 -0.5383814400E-35  0.9595103624E-34 -0.1188998601E-31  0.2675856078E-30  0.6100380245E-33 -0.1314261636E-35  0.1740496360E-34 -0.1049131238E-34 -0.1068315421E-34  0.2485857256E-33 -0.7093223092E-31  0.9595103624E-34  0.2226874508E-35 -0.5383814400E-35
27  0.1081195065E-34 -0.1292808276E-35 -0.2776106046E-35 -0.1810708660E-34  0.2527948367E-34 -0.7258829667E-31  0.8454734673E-34 -0.1277982659E-31  0.2734605857E-30  0.5992545550E-33  0.0000000000E+00  0.8454734673E-34  0.2507312250E-33 -0.7258829667E-31 -0.7258293874E-31 -0.1070094534E-34 -0.5357933893E-35  0.9524829207E-34 -0.1277848432E-31  0.2734434423E-30  0.6098932423E-33 -0.1342263998E-35  0.1714339809E-34 -0.1063868737E-34 -0.1070094534E-34  0.2485521036E-33 -0.7258293874E-31  0.9524829207E-34  0.2179121441E-35 -0.5357933893E-35
28  0.8762958297E-35 -0.5146174800E-35 -0.2625228545E-35 -0.1071754944E-34  0.1665747211E-34 -0.7295268015E-31  0.8398833553E-34 -0.1338876763E-31  0.2754817640E-30  0.5990001065E-33  0.0000000000E+00  0.8398833553E-34  0.2506606138E-33 -0.7295268015E-31 -0.7294733484E-31 -0.1072919599E-34 -0.5345309827E-35  0.9471753153E-34 -0.1338740437E-31  0.2754647972E-30  0.6097804187E-33 -0.1363259707E-35  0.1696677591E-34 -0.1078031217E-34 -0.1072919599E-34  0.2485272633E-33 -0.7294733484E-31  0.9471753153E-34  0.2133350489E-35 -0.5345309827E-35
29  0.6802298232E-35 -0.6059762887E-35 -0.2095258081E-35 -0.5280250623E-35  0.1135475948E-34 -0.7286329664E-31  0.8357747360E-34 -0.1379267491E-31  0.2756511093E-30  0.5987841521E-33  0.0000000000E+00  0.8357747360E-34  0.2506027192E-33 -0.7286329664E-31 -0.7285795314E-31 -0.1074712708E-34 -0.5343504461E-35  0.9432460069E-34 -0.1379129940E-31  0.2756342457E-30  0.6096939003E-33 -0.1375512807E-35  0.1686365168E-34 -0.1090974820E-34 -0.1074712708E-34  0.2485074257E-33 -0.7285795314E-31  0.9432460069E-34  0.2095293542E-35 -0.5343504461E-35
30  0.4979792331E-35 -0.4818778494E-35 -0.1444970399E-35 -0.2212172924E-35  0.8397030842E-35 -0.7274709615E-31  0.8329836725E-34 -0.1405122875E-31  0.2752840004E-30  0.5986072031E-33  0.0000000000E+00  0.8329836725E-34  0.2505580171E-33 -0.7274709615E-31 -0.7274175121E-31 -0.1075119187E-34 -0.5344940734E-35  0.9404955912E-34 -0.1404984876E-31  0.2752671997E-30  0.6096270059E-33 -0.1379985337E-35  0.1680067867E-34 -0.1101980276E-34 -0.1075119187E-34  0.2484904158E-33 -0.7274175121E-31  0.9404955912E-34  0.2067601312E-35 -0.5344940734E-35
31  0.3495412646E-35 -0.2846217671E-35 -0.8995566950E-36 -0.9457911785E-36  0.6698628642E-35 -0.7270118856E-31  0.8312975348E-34 -0.1420583963E-31  0.2748944771E-30  0.5984713710E-33  0.0000000000E+00  0.8312975348E-34  0.2505264277E-33 -0.7270118856E-31 -0.7269584270E-31 -0.1074602330E-34 -0.5345860627E-35  0.9387577678E-34 -0.1420446001E-31  0.2748777204E-30  0.6095769148E-33 -0.1379621110E-35  0.1675671907E-34 -0.1110554389E-34 -0.1074602330E-34  0.2484761943E-33 -0.7269584270E-31  0.9387577678E-34  0.2050233437E-35 -0.5345860627E-35
32  0.2390564982E-35 -0.1113128556E-35 -0.5452726361E-36 -0.6434119153E-36  0.5596060663E-35 -0.7272490199E-31  0.8303989000E-34 -0.1428978662E-31  0.2747004395E-30  0.5983742101E-33  0.0000000000E+00  0.8303989000E-34  0.2505062468E-33 -0.7272490199E-31 -0.7271955737E-31 -0.1073789139E-34 -0.5344617637E-35  0.9377778139E-34 -0.1428840933E-31  0.2746837210E-30  0.6095410862E-33 -0.1377293883E-35  0.1671849893E-34 -0.1116687603E-34 -0.1073789139E-34  0.2484651209E-33 -0.7271955737E-31  0.9377778139E-34  0.2041125938E-35 -0.5344617637E-35
33  0.1652387981E-35  0.2606475579E-37 -0.3418206201E-36 -0.6345411448E-36  0.4587408259E-35 -0.7277751134E-31  0.8299873492E-34 -0.1432943929E-31  0.2746920691E-30  0.5983090980E-33  0.0000000000E+00  0.8299873492E-34  0.2504945776E-33 -0.7277751134E-31 -0.7277216955E-31 -0.1073095101E-34 -0.5341784643E-35  0.9372968593E-34 -0.1432806431E-31  0.2746753862E-30  0.6095163433E-33 -0.1374989022E-35  0.1668295897E-34 -0.1120724536E-34 -0.1073095101E-34  0.2484569792E-33 -0.7277216955E-31  0.9372968593E-34  0.2037598367E-35 -0.5341784643E-35
34  0.1166070484E-35  0.5680737227E-36 -0.2203877459E-36 -0.6211331859E-36  0.3578554381E-35 -0.7282813675E-31  0.8298303333E-34 -0.1434556446E-31  0.2747945386E-30  0.5982680267E-33  0.0000000000E+00  0.8298303333E-34  0.2504885583E-33 -0.7282813675E-31 -0.7282279825E-31 -0.1072677525E-34 -0.5338501647E-35  0.9370980858E-34 -0.1434419087E-31  0.2747778873E-30  0.6094998776E-33 -0.1373597266E-35  0.1665137794E-34 -0.1123185093E-34 -0.1072677525E-34  0.2484513412E-33 -0.7282279825E-31  0.9370980858E-34  0.2037217108E-35 -0.5338501647E-35
35  0.8395480349E-36  0.6703713684E-36 -0.1368779275E-36 -0.5642861021E-36  0.2626522296E-35 -0.7286522611E-31  0.8297783753E-34 -0.1435228506E-31  0.2749394177E-30  0.5982431457E-33  0.0000000000E+00  0.8297783753E-34  0.2504858030E-33 -0.7286522611E-31 -0.7285989044E-31 -0.1072517051E-34 -0.5335669203E-35  0.9370300803E-34 -0.1435091187E-31  0.2749227920E-30  0.6094891371E-33 -0.1373183612E-35  0.1662564277E-34 -0.1124599142E-34 -0.1072517051E-34  0.2484475879E-33 -0.7285989044E-31  0.9370300803E-34  0.2038215149E-35 -0.5335669203E-35
36  0.6100155005E-36  0.5287035225E-36 -0.7207261253E-37 -0.4821665659E-36  0.1832674026E-35 -0.7289034296E-31  0.8297534391E-34 -0.1435715526E-31  0.2750855966E-30  0.5982280860E-33  0.0000000000E+00  0.8297534391E-34  0.2504846464E-33 -0.7289034296E-31 -0.7288500926E-31 -0.1072520696E-34 -0.5333698447E-35  0.9370055087E-34 -0.1435578183E-31  0.2750689901E-30  0.6094820817E-33 -0.1373422692E-35  0.1660650873E-34 -0.1125399576E-34 -0.1072520696E-34  0.2484451084E-33 -0.7288500926E-31  0.9370055087E-34  0.2039537987E-35 -0.5333698447E-35
37  0.4432053288E-36  0.3168089428E-36 -0.2158379599E-37 -0.3829477519E-36  0.1243894176E-35 -0.7290936036E-31  0.8297258697E-34 -0.1436293886E-31  0.2752151180E-30  0.5982184365E-33  0.0000000000E+00  0.8297258697E-34  0.2504841121E-33 -0.7290936036E-31 -0.7290402777E-31 -0.1072593383E-34 -0.5332594663E-35  0.9369852079E-34 -0.1436156492E-31  0.2751985246E-30  0.6094772737E-33 -0.1373936764E-35  0.1659343936E-34 -0.1125883722E-34 -0.1072593383E-34  0.2484434226E-33 -0.7290402777E-31  0.9369852079E-34  0.2040689470E-35 -0.5332594663E-35
38  0.3204193455E-36  0.1418610730E-36  0.1393254192E-37 -0.2730737524E-36  0.8462554034E-36 -0.7292687775E-31  0.8296915476E-34 -0.1436976026E-31  0.2753233686E-30  0.5982115761E-33  0.0000000000E+00  0.8296915476E-34  0.2504837364E-33 -0.7292687775E-31 -0.7292154562E-31 -0.1072671320E-34 -0.5332136242E-35  0.9369586796E-34 -0.1436838579E-31  0.2753067835E-30  0.6094738177E-33 -0.1374461850E-35  0.1658509899E-34 -0.1126224156E-34 -0.1072671320E-34  0.2484422159E-33 -0.7292154562E-31  0.9369586796E-34  0.2041520590E-35 -0.5332136242E-35
39  0.2309101944E-36  0.3720959587E-37  0.3384744109E-37 -0.1644154737E-36  0.5937069249E-36 -0.7294446562E-31  0.8296555069E-34 -0.1437677766E-31  0.2754110211E-30  0.5982061824E-33  0.0000000000E+00  0.8296555069E-34  0.2504833623E-33 -0.7294446562E-31 -0.7293913357E-31 -0.1072726109E-34 -0.5332045875E-35  0.9369281179E-34 -0.1437540278E-31  0.2753944411E-30  0.6094712149E-33 -0.1374874528E-35  0.1657996863E-34 -0.1126503246E-34 -0.1072726109E-34  0.2484413107E-33 -0.7293913357E-31  0.9369281179E-34  0.2042051615E-35 -0.5332045875E-35
40  0.1669446519E-36 -0.7995101929E-38  0.4007379286E-37 -0.7074656185E-37  0.4369205202E-36 -0.7296150442E-31  0.8296230505E-34 -0.1438309150E-31  0.2754802571E-30  0.5982017149E-33  0.0000000000E+00  0.8296230505E-34  0.2504829789E-33 -0.7296150442E-31 -0.7295617232E-31 -0.1072754175E-34 -0.5332097900E-35  0.9368984681E-34 -0.1438171635E-31  0.2754636804E-30  0.6094692120E-33 -0.1375151057E-35  0.1657676558E-34 -0.1126749712E-34 -0.1072754175E-34  0.2484406186E-33 -0.7295617232E-31  0.9368984681E-34  0.2042360250E-35 -0.5332097900E-35
41  0.1219833748E-36 -0.1675294672E-37  0.3710663754E-37 -0.2366930946E-38  0.3360499291E-36 -0.7297638057E-31  0.8295971488E-34 -0.1438821065E-31  0.2755325388E-30  0.5981980128E-33  0.0000000000E+00  0.8295971488E-34  0.2504826213E-33 -0.7297638057E-31 -0.7297104840E-31 -0.1072763157E-34 -0.5332166488E-35  0.9368734645E-34 -0.1438683533E-31  0.2755159642E-30  0.6094676862E-33 -0.1375317716E-35  0.1657464920E-34 -0.1126967335E-34 -0.1072763157E-34  0.2484400969E-33 -0.7297104840E-31  0.9368734645E-34  0.2042524388E-35 -0.5332166488E-35
42  0.9015342535E-37 -0.8638953784E-38  0.3001819822E-37  0.3710901228E-37  0.2658967780E-36 -0.7298814571E-31  0.8295780646E-34 -0.1439197765E-31  0.2755703762E-30  0.5981950446E-33  0.0000000000E+00  0.8295780646E-34  0.2504823248E-33 -0.7298814571E-31 -0.7298281350E-31 -0.1072762416E-34 -0.5332201054E-35  0.9368543063E-34 -0.1439060224E-31  0.2755538031E-30  0.6094665649E-33 -0.1375409012E-35  0.1657313417E-34 -0.1127152031E-34 -0.1072762416E-34  0.2484397197E-33 -0.7298281350E-31  0.9368543063E-34  0.2042605114E-35 -0.5332201054E-35
43  0.6735198820E-37  0.3968720987E-38  0.2251881057E-37  0.5131328842E-37  0.2115973130E-36 -0.7299662607E-31  0.8295647383E-34 -0.1439449017E-31  0.2755964872E-30  0.5981927794E-33  0.0000000000E+00  0.8295647383E-34  0.2504821070E-33 -0.7299662607E-31 -0.7299129387E-31 -0.1072758455E-34 -0.5332199837E-35  0.9368405838E-34 -0.1439311472E-31  0.2755799152E-30  0.6094657842E-33 -0.1375452273E-35  0.1657199123E-34 -0.1127300477E-34 -0.1072758455E-34  0.2484394625E-33 -0.7299129387E-31  0.9368405838E-34  0.2042644523E-35 -0.5332199837E-35
44  0.5061701510E-37  0.1455933434E-37  0.1633780662E-37  0.4864796366E-37  0.1670550437E-36 -0.7300230961E-31  0.8295557690E-34 -0.1439598089E-31  0.2756137725E-30  0.5981911526E-33  0.0000000000E+00  0.8295557690E-34  0.2504819693E-33 -0.7300230961E-31 -0.7299697743E-31 -0.1072754341E-34 -0.5332178372E-35  0.9368312031E-34 -0.1439460542E-31  0.2755972013E-30  0.6094652807E-33 -0.1375464808E-35  0.1657111961E-34 -0.1127412801E-34 -0.1072754341E-34  0.2484393002E-33 -0.7299697743E-31  0.9368312031E-34  0.2042669139E-35 -0.5332178372E-35
45  0.3816669565E-37  0.2077496570E-37  0.1180773458E-37  0.3819234683E-37  0.1300256268E-36 -0.7300597495E-31  0.8295499266E-34 -0.1439671790E-31  0.2756249623E-30  0.5981900663E-33  0.0000000000E+00  0.8295499266E-34  0.2504819027E-33 -0.7300597495E-31 -0.7300064280E-31 -0.1072750881E-34 -0.5332151592E-35  0.9368250147E-34 -0.1439534245E-31  0.2756083918E-30  0.6094649905E-33 -0.1375456749E-35  0.1657046584E-34 -0.1127492421E-34 -0.1072750881E-34  0.2484392088E-33 -0.7300064280E-31  0.9368250147E-34  0.2042693926E-35 -0.5332151592E-35
46  0.2884421026E-37  0.2270084532E-37  0.8678075733E-38  0.2658283472E-37  0.9976764448E-37 -0.7300836709E-31  0.8295462804E-34 -0.1439694501E-31  0.2756322935E-30  0.5981894063E-33  0.0000000000E+00  0.8295462804E-34  0.2504818923E-33 -0.7300836709E-31 -0.7300303497E-31 -0.1072747977E-34 -0.5332127584E-35  0.9368210781E-34 -0.1439556957E-31  0.2756157235E-30  0.6094648543E-33 -0.1375434815E-35  0.1656998610E-34 -0.1127544800E-34 -0.1072747977E-34  0.2484391668E-33 -0.7300303497E-31  0.9368210781E-34  0.2042725546E-35 -0.5332127584E-35
47  0.2185308696E-37  0.2157312934E-37  0.6572488501E-38  0.1716075427E-37  0.7568295590E-37 -0.7301002878E-31  0.8295441510E-34 -0.1439685781E-31  0.2756373506E-30  0.5981890598E-33  0.0000000000E+00  0.8295441510E-34  0.2504819221E-33 -0.7301002878E-31 -0.7300469668E-31 -0.1072745432E-34 -0.5332108521E-35  0.9368186942E-34 -0.1439548241E-31  0.2756207809E-30  0.6094648212E-33 -0.1375404497E-35  0.1656963821E-34 -0.1127576142E-34 -0.1072745432E-34  0.2484391570E-33 -0.7300469668E-31  0.9368186942E-34  0.2042765033E-35 -0.5332108521E-35
48  0.1660052152E-37  0.1883848344E-37  0.5162645598E-38  0.1072431970E-37  0.5700824888E-37 -0.7301127858E-31  0.8295430302E-34 -0.1439660058E-31  0.2756411029E-30  0.5981889270E-33  0.0000000000E+00  0.8295430302E-34  0.2504819767E-33 -0.7301127858E-31 -0.7300594649E-31 -0.1072743213E-34 -0.5332093660E-35  0.9368173515E-34 -0.1439522521E-31  0.2756245335E-30  0.6094648511E-33 -0.1375370635E-35  0.1656938490E-34 -0.1127592408E-34 -0.1072743213E-34  0.2484391666E-33 -0.7300594649E-31  0.9368173515E-34  0.2042810090E-35 -0.5332093660E-35
49  0.1264290753E-37  0.1563159478E-37  0.4201305853E-38  0.6756476394E-38  0.4282675563E-37 -0.7301226845E-31  0.8295425310E-34 -0.1439627227E-31  0.2756440580E-30  0.5981889274E-33  0.0000000000E+00  0.8295425310E-34  0.2504820436E-33 -0.7301226845E-31 -0.7300693637E-31 -0.1072741399E-34 -0.5332081703E-35  0.9368166709E-34 -0.1439489694E-31  0.2756274888E-30  0.6094649146E-33 -0.1375337149E-35  0.1656919755E-34 -0.1127598722E-34 -0.1072741399E-34  0.2484391866E-33 -0.7300693637E-31  0.9368166709E-34  0.2042857015E-35 -0.5332081703E-35
50  0.9650640427E-38  0.1261630937E-37  0.3514348913E-38  0.4400342896E-38  0.3220070693E-37 -0.7301305904E-31  0.8295423665E-34 -0.1439593528E-31  0.2756464442E-30  0.5981890005E-33  0.0000000000E+00  0.8295423665E-34  0.2504821129E-33 -0.7301305904E-31 -0.7300772697E-31 -0.1072740067E-34 -0.5332071823E-35  0.9368163732E-34 -0.1439455997E-31  0.2756298751E-30  0.6094649916E-33 -0.1375306706E-35  0.1656905671E-34 -0.1127599113E-34 -0.1072740067E-34  0.2484392108E-33 -0.7300772697E-31  0.9368163732E-34  0.2042902138E-35 -0.5332071823E-35
51  0.7381542515E-38  0.1005959146E-37  0.2985293636E-38  0.2960569577E-38  0.2428052942E-37 -0.7301367570E-31  0.8295423434E-34 -0.1439562454E-31  0.2756483539E-30  0.5981891048E-33  0.0000000000E+00  0.8295423434E-34  0.2504821782E-33 -0.7301367570E-31 -0.7300834364E-31 -0.1072739213E-34 -0.5332063737E-35  0.9368162647E-34 -0.1439424926E-31  0.2756317849E-30  0.6094650696E-33 -0.1375280676E-35  0.1656895013E-34 -0.1127596489E-34 -0.1072739213E-34  0.2484392355E-33 -0.7300834364E-31  0.9368162647E-34  0.2042942691E-35 -0.5332063737E-35
52  0.5656404755E-38  0.7988172286E-38  0.2542289501E-38  0.2024434702E-38  0.1837053614E-37 -0.7301413975E-31  0.8295423495E-34 -0.1439535578E-31  0.2756498405E-30  0.5981892141E-33  0.0000000000E+00  0.8295423495E-34  0.2504822357E-33 -0.7301413975E-31 -0.7300880769E-31 -0.1072738752E-34 -0.5332057378E-35  0.9368162247E-34 -0.1439398053E-31  0.2756332717E-30  0.6094651417E-33 -0.1375259369E-35  0.1656886996E-34 -0.1127592757E-34 -0.1072738752E-34  0.2484392586E-33 -0.7300880769E-31  0.9368162247E-34  0.2042977131E-35 -0.5332057378E-35
53  0.4342031984E-38  0.6328797431E-38  0.2147057891E-38  0.1393065619E-38  0.1393615144E-37 -0.7301447669E-31  0.8295423353E-34 -0.1439513251E-31  0.2756509570E-30  0.5981893143E-33  0.0000000000E+00  0.8295423353E-34  0.2504822839E-33 -0.7301447669E-31 -0.7300914464E-31 -0.1072738559E-34 -0.5332052642E-35  0.9368161912E-34 -0.1439375727E-31  0.2756343882E-30  0.6094652045E-33 -0.1375242415E-35  0.1656881051E-34 -0.1127589022E-34 -0.1072738559E-34  0.2484392789E-33 -0.7300914464E-31  0.9368161912E-34  0.2043005059E-35 -0.5332052642E-35
54  0.3337838495E-38  0.4992666787E-38  0.1784982052E-38  0.9729793949E-39  0.1058790416E-37 -0.7301471451E-31  0.8295422913E-34 -0.1439495148E-31  0.2756517654E-30  0.5981893992E-33  0.0000000000E+00  0.8295422913E-34  0.2504823230E-33 -0.7301471451E-31 -0.7300938246E-31 -0.1072738514E-34 -0.5332049279E-35  0.9368161427E-34 -0.1439357625E-31  0.2756351967E-30  0.6094652573E-33 -0.1375229127E-35  0.1656876713E-34 -0.1127585812E-34 -0.1072738514E-34  0.2484392961E-33 -0.7300938246E-31  0.9368161427E-34  0.2043026910E-35 -0.5332049279E-35