TITLE="fun3d_case_title"
VARIABLES="Iteration" "R_1" "R_2" "R_3" "R_4" "R_5" "R_6" "C_L" "C_D" "C_M_x" "C_M_y" "C_M_z" "Wall Time" "C_x" "C_y" "C_z" "C_Lp" "C_Dp" "C_Lv" "C_Dv" "C_M_xp" "C_M_yp" "C_M_zp" "C_M_xv" "C_M_yv" "C_M_zv" "C_xp" "C_yp" "C_zp" "C_xv" "C_yv" "C_zv"
ZONE  I=100 F=POINT
1  0.0000000000E+00  0.0000000000E+00  0.0000000000E+00  0.0000000000E+00  0.0000000000E+00  0.0000000000E+00  0.0000000000E+00  0.0000000000E+00  0.0000000000E+00  0.0000000000E+00  0.0000000000E+00  0.0000000000E+00  0.0000000000E+00  0.0000000000E+00  0.0000000000E+00  0.0000000000E+00  0.0000000000E+00  0.0000000000E+00  0.0000000000E+00  0.0000000000E+00  0.0000000000E+00  0.0000000000E+00  0.0000000000E+00  0.0000000000E+00  0.0000000000E+00  0.0000000000E+00  0.0000000000E+00  0.0000000000E+00  0.0000000000E+00  0.0000000000E+00  0.0000000000E+00
2  0.0000000000E+00  0.0000000000E+00  0.0000000000E+00  0.0000000000E+00 -0.7636781679E-35  0.1715818952E-36  0.4106941333E-33  0.8902839485E-38  0.5179629079E-34 -0.1292250610E-32  0.1614549633E-37  0.0000000000E+00  0.8902839485E-38 -0.1074081433E-37  0.4106941333E-33  0.4106042895E-33  0.0000000000E+00  0.8984381609E-37  0.8902839485E-38  0.5153387730E-34 -0.1291801311E-32  0.0000000000E+00  0.2624134826E-36 -0.4492981933E-36  0.1614549633E-37  0.0000000000E+00  0.0000000000E+00  0.4106042895E-33  0.8902839485E-38 -0.1074081433E-37  0.8984381609E-37
3  0.5047188877E-37 -0.8249162244E-35 -0.2639934155E-35 -0.5016567731E-35  0.1112567298E-32 -0.2727469399E-35  0.5442906368E-32  0.3176268930E-36  0.8536251869E-33 -0.1437194892E-31 -0.3999580480E-38  0.0000000000E+00  0.3176268930E-36 -0.8189557029E-39  0.5442906368E-32  0.5443154958E-32  0.0000000000E+00 -0.2485904260E-36  0.3176268930E-36  0.8534750487E-33 -0.1437266883E-31  0.0000000000E+00  0.1501381905E-36  0.7199122530E-36 -0.3999580480E-38  0.0000000000E+00  0.0000000000E+00  0.5443154958E-32  0.3176268930E-36 -0.8189557029E-39 -0.2485904260E-36
4  0.9577698802E-35  0.3029694792E-35 -0.1525299836E-38 -0.5965425335E-35  0.5383919896E-33  0.3407131108E-35  0.3670481176E-32  0.5059729516E-36  0.1551878569E-33 -0.1099646549E-31 -0.8780204535E-37  0.0000000000E+00  0.5059729516E-36 -0.4591786392E-38  0.3670481176E-32  0.3670709178E-32  0.0000000000E+00 -0.2280013201E-36  0.5059729516E-36  0.1549982857E-33 -0.1099723154E-31  0.0000000000E+00  0.1895712544E-36  0.7660451262E-36 -0.8780204535E-37  0.0000000000E+00  0.0000000000E+00  0.3670709178E-32  0.5059729516E-36 -0.4591786392E-38 -0.2280013201E-36
5  0.6292819612E-35  0.1816964448E-35  0.1361747072E-35 -0.3209516015E-36  0.2254377843E-32  0.4042912937E-34 -0.1433804528E-31  0.3508170873E-35 -0.1050450250E-31  0.4504611485E-31 -0.5719434454E-36  0.0000000000E+00  0.3508170873E-35  0.2439322342E-37 -0.1433804528E-31 -0.1433853437E-31  0.0000000000E+00  0.4890893533E-36  0.3508170873E-35 -0.1050528837E-31  0.4504644395E-31  0.0000000000E+00  0.7858714579E-36 -0.3291016382E-36 -0.5719434454E-36  0.0000000000E+00  0.0000000000E+00 -0.1433853437E-31  0.3508170873E-35  0.2439322342E-37  0.4890893533E-36
6  0.2770138645E-34  0.2378204282E-34 -0.9761217442E-36  0.3776327008E-34  0.1670028595E-32  0.1965557599E-33 -0.4824300307E-31  0.1349526852E-34 -0.1565289191E-31  0.1068460983E-30 -0.5411895680E-36  0.0000000000E+00  0.1349526852E-34  0.1640028198E-36 -0.4824300307E-31 -0.4824695776E-31  0.0000000000E+00  0.3954692683E-35  0.1349526852E-34 -0.1565398753E-31  0.1068578625E-30  0.0000000000E+00  0.1095620023E-35 -0.1176424187E-34 -0.5411895680E-36  0.0000000000E+00  0.0000000000E+00 -0.4824695776E-31  0.1349526852E-34  0.1640028198E-36  0.3954692683E-35
7  0.4752069564E-34  0.3868579129E-35  0.1516139324E-35  0.1633960788E-34  0.8492097643E-33  0.1913014735E-33 -0.8580468285E-32  0.2139458165E-34 -0.2244327175E-32  0.5305500847E-32 -0.1361554193E-35  0.0000000000E+00  0.2139458165E-34  0.3037711467E-36 -0.8580468285E-32 -0.8585286770E-32  0.0000000000E+00  0.4818485637E-35  0.2139458165E-34 -0.2245360681E-32  0.5321246801E-32  0.0000000000E+00  0.1033505329E-35 -0.1574595381E-34 -0.1361554193E-35  0.0000000000E+00  0.0000000000E+00 -0.8585286770E-32  0.2139458165E-34  0.3037711467E-36  0.4818485637E-35
8  0.4575606733E-34  0.1374083205E-34 -0.3072731673E-36  0.2872847975E-35  0.2695232048E-33  0.1149346943E-33  0.3280988347E-31  0.2143856632E-34  0.7260222596E-32 -0.1340859702E-30 -0.7398391911E-36  0.0000000000E+00  0.2143856632E-34  0.4807550267E-36  0.3280988347E-31  0.3280743462E-31  0.0000000000E+00  0.2448853436E-35  0.2143856632E-34  0.7259625570E-32 -0.1340780711E-30  0.0000000000E+00  0.5970268907E-36 -0.7899054390E-35 -0.7398391911E-36  0.0000000000E+00  0.0000000000E+00  0.3280743462E-31  0.2143856632E-34  0.4807550267E-36  0.2448853436E-35
9  0.3480010142E-34  0.1386560771E-34  0.2331549000E-35  0.2094163996E-34  0.1087211522E-33  0.3674854438E-34  0.2706358361E-31  0.1952935740E-34  0.6635559103E-32 -0.1131979626E-30 -0.4410982780E-36  0.0000000000E+00  0.1952935740E-34  0.5281348544E-36  0.2706358361E-31  0.2706268676E-31  0.0000000000E+00  0.8968473260E-36  0.1952935740E-34  0.6635226959E-32 -0.1131958088E-30  0.0000000000E+00  0.3321436823E-36 -0.2153767627E-35 -0.4410982780E-36  0.0000000000E+00  0.0000000000E+00  0.2706268676E-31  0.1952935740E-34  0.5281348544E-36  0.8968473260E-36
10  0.2841063936E-34  0.1980609880E-34  0.3189019006E-35  0.8169274309E-35  0.1045793993E-33  0.3620046655E-34  0.2195088074E-31  0.1832353532E-34  0.4455774481E-32 -0.8305236651E-31 -0.3824119646E-36  0.0000000000E+00  0.1832353532E-34  0.4986477497E-36  0.2195088074E-31  0.2195063087E-31  0.0000000000E+00  0.2498688404E-36  0.1832353532E-34  0.4455572988E-32 -0.8305252667E-31  0.0000000000E+00  0.2014938045E-36  0.1601563277E-36 -0.3824119646E-36  0.0000000000E+00  0.0000000000E+00  0.2195063087E-31  0.1832353532E-34  0.4986477497E-36  0.2498688404E-36
11  0.2038709040E-34  0.2401562903E-34  0.2026388738E-35  0.1861016802E-34  0.7566190539E-34  0.2661151366E-34  0.1972568595E-31  0.1784877681E-34  0.2687279533E-32 -0.6591747182E-31 -0.4592480407E-36  0.0000000000E+00  0.1784877681E-34  0.4616992318E-36  0.1972568595E-31  0.1972565426E-31  0.0000000000E+00  0.3168969205E-37  0.1784877681E-34  0.2687132204E-32 -0.6591826588E-31  0.0000000000E+00  0.1473293472E-36  0.7940605555E-36 -0.4592480407E-36  0.0000000000E+00  0.0000000000E+00  0.1972565426E-31  0.1784877681E-34  0.4616992318E-36  0.3168969205E-37
12  0.1710648549E-34  0.2229068446E-34  0.2111959302E-35  0.1744095763E-34  0.6933906691E-34  0.2255627533E-34  0.1113058116E-31  0.1713027567E-34  0.1256203096E-32 -0.3697889078E-31 -0.5805472410E-36  0.0000000000E+00  0.1713027567E-34  0.4333799161E-36  0.1113058116E-31  0.1113066069E-31  0.0000000000E+00 -0.7952946297E-37  0.1713027567E-34  0.1256082368E-32 -0.3697993011E-31  0.0000000000E+00  0.1207279107E-36  0.1039328430E-35 -0.5805472410E-36  0.0000000000E+00  0.0000000000E+00  0.1113066069E-31  0.1713027567E-34  0.4333799161E-36 -0.7952946297E-37
13  0.1283588313E-34  0.1444275089E-34  0.2175964242E-35  0.1161948544E-34  0.5203176843E-34  0.1422114355E-34  0.6942999526E-32  0.1705528458E-34  0.2679880329E-33 -0.2411647575E-31 -0.7102989586E-36  0.0000000000E+00  0.1705528458E-34  0.4212273656E-36  0.6942999526E-32  0.6943200425E-32  0.0000000000E+00 -0.2008986822E-36  0.1705528458E-34  0.2678750367E-33 -0.2411783635E-31  0.0000000000E+00  0.1129962278E-36  0.1360594043E-35 -0.7102989586E-36  0.0000000000E+00  0.0000000000E+00  0.6943200425E-32  0.1705528458E-34  0.4212273656E-36 -0.2008986822E-36
14  0.9509456322E-35  0.1000526395E-34  0.1867999046E-35  0.1647278609E-34  0.4339045203E-34  0.9053293657E-35  0.3105878813E-32  0.1722516473E-34 -0.4443345552E-33 -0.1285573590E-31 -0.8406195782E-36  0.0000000000E+00  0.1722516473E-34  0.4151591213E-36  0.3105878813E-32  0.3106164974E-32  0.0000000000E+00 -0.2861609218E-36  0.1722516473E-34 -0.4444421856E-33 -0.1285731651E-31  0.0000000000E+00  0.1076303468E-36  0.1580612271E-35 -0.8406195782E-36  0.0000000000E+00  0.0000000000E+00  0.3106164974E-32  0.1722516473E-34  0.4151591213E-36 -0.2861609218E-36
15  0.8043064879E-35  0.7680033082E-35  0.1513539790E-35  0.8050052425E-35 -0.1161669558E-32 -0.1195313514E-32  0.2760508546E-31  0.1673760032E-33 -0.1502857628E-30 -0.5230866706E-30 -0.1031981272E-34  0.0000000000E+00  0.1673760032E-33  0.1926885109E-35  0.2760508546E-31  0.2759129822E-31  0.0000000000E+00  0.1378724163E-34  0.1673760032E-33 -0.1502926893E-30 -0.5230524841E-30  0.0000000000E+00  0.6926468039E-35 -0.3418651451E-34 -0.1031981272E-34  0.0000000000E+00  0.0000000000E+00  0.2759129822E-31  0.1673760032E-33  0.1926885109E-35  0.1378724163E-34
16 -0.1808565522E-33  0.2731092607E-35 -0.8988661651E-36 -0.1049088572E-33  0.6078741618E-33 -0.3897782333E-33  0.2253568722E-30  0.1625956648E-33  0.3286048851E-31 -0.9422156891E-30 -0.5022585755E-35  0.0000000000E+00  0.1625956648E-33  0.3893148942E-35  0.2253568722E-30  0.2253491193E-30  0.0000000000E+00  0.7752839061E-35  0.1625956648E-33  0.3285534104E-31 -0.9422009186E-30  0.0000000000E+00  0.5147465734E-35 -0.1477049328E-34 -0.5022585755E-35  0.0000000000E+00  0.0000000000E+00  0.2253491193E-30  0.1625956648E-33  0.3893148942E-35  0.7752839061E-35
17  0.4995497625E-35 -0.8699404344E-34 -0.1370449412E-34  0.2764601980E-34  0.4366541938E-34  0.7311183899E-34  0.1409963347E-30  0.1474977934E-33  0.5991541844E-31 -0.5796772561E-30 -0.1828079770E-35  0.0000000000E+00  0.1474977934E-33  0.4773100701E-35  0.1409963347E-30  0.1409954753E-30  0.0000000000E+00  0.8594061308E-36  0.1474977934E-33  0.5991355275E-31 -0.5796828120E-30  0.0000000000E+00  0.1865686749E-35  0.5555934063E-35 -0.1828079770E-35  0.0000000000E+00  0.0000000000E+00  0.1409954753E-30  0.1474977934E-33  0.4773100701E-35  0.8594061308E-36
18  0.8309263435E-34 -0.4098827819E-34 -0.6089386411E-35 -0.1277742272E-33 -0.3130722259E-34  0.2104919918E-33  0.9543081784E-31  0.1353861878E-33  0.3670152588E-31 -0.3247608399E-30 -0.1916510369E-35  0.0000000000E+00  0.1353861878E-33  0.4435684947E-35  0.9543081784E-31  0.9543354842E-31  0.0000000000E+00 -0.2730575698E-35  0.1353861878E-33  0.3670134879E-31 -0.3247754793E-30  0.0000000000E+00  0.1770870905E-36  0.1463946898E-34 -0.1916510369E-35  0.0000000000E+00  0.0000000000E+00  0.9543354842E-31  0.1353861878E-33  0.4435684947E-35 -0.2730575698E-35
19  0.8886849870E-34  0.3765423447E-35  0.1003589863E-34 -0.7457743276E-34  0.3756264658E-34  0.2195682979E-33  0.6379262227E-31  0.1253225671E-33  0.1450557046E-31 -0.1497521673E-30 -0.3360763141E-35  0.0000000000E+00  0.1253225671E-33  0.3687334776E-35  0.6379262227E-31  0.6379692737E-31  0.0000000000E+00 -0.4305102621E-35  0.1253225671E-33  0.1450599105E-31 -0.1497695645E-30  0.0000000000E+00 -0.4205922040E-36  0.1739718526E-34 -0.3360763141E-35  0.0000000000E+00  0.0000000000E+00  0.6379692737E-31  0.1253225671E-33  0.3687334776E-35 -0.4305102621E-35
20  0.8892950005E-34  0.2516047546E-34  0.1198948904E-34  0.9321545085E-34  0.1154887267E-33  0.1961065949E-33  0.1871654024E-31  0.1157121894E-33 -0.1261133803E-32  0.1850775535E-31 -0.5392003165E-35  0.0000000000E+00  0.1157121894E-33  0.2849593097E-35  0.1871654024E-31  0.1872160951E-31  0.0000000000E+00 -0.5069270325E-35  0.1157121894E-33 -0.1260484378E-32  0.1848935689E-31  0.0000000000E+00 -0.6494251442E-36  0.1839845291E-34 -0.5392003165E-35  0.0000000000E+00  0.0000000000E+00  0.1872160951E-31  0.1157121894E-33  0.2849593097E-35 -0.5069270325E-35
21  0.8393626373E-34  0.1446347649E-34  0.2889381779E-35  0.7879549233E-34  0.1207142317E-33  0.1436964507E-33 -0.9073331052E-32  0.1086373074E-33 -0.7876713241E-32  0.1077661208E-30 -0.6850711915E-35  0.0000000000E+00  0.1086373074E-33  0.2354948489E-35 -0.9073331052E-32 -0.9068048890E-32  0.0000000000E+00 -0.5282161485E-35  0.1086373074E-33 -0.7876048510E-32  0.1077478970E-30  0.0000000000E+00 -0.6647304564E-36  0.1822379229E-34 -0.6850711915E-35  0.0000000000E+00  0.0000000000E+00 -0.9068048890E-32  0.1086373074E-33  0.2354948489E-35 -0.5282161485E-35
22  0.5947119841E-34 -0.5009407929E-35 -0.8568674677E-36  0.5341869865E-34  0.1049826645E-33  0.9807181469E-34 -0.3171059353E-31  0.1036906063E-33 -0.1097878730E-31  0.1689151722E-30 -0.7709064067E-35  0.0000000000E+00  0.1036906063E-33  0.2129770757E-35 -0.3171059353E-31 -0.3170517559E-31  0.0000000000E+00 -0.5417942686E-35  0.1036906063E-33 -0.1097814347E-31  0.1688970338E-30  0.0000000000E+00 -0.6438276785E-36  0.1813832484E-34 -0.7709064067E-35  0.0000000000E+00  0.0000000000E+00 -0.3170517559E-31  0.1036906063E-33  0.2129770757E-35 -0.5417942686E-35
23  0.3851508713E-34 -0.9931200190E-35 -0.9344591860E-36  0.1546269607E-34  0.8282636436E-34  0.6055246639E-34 -0.4937091453E-31  0.1004273776E-33 -0.1297534888E-31  0.2127324563E-30 -0.8185841721E-35  0.0000000000E+00  0.1004273776E-33  0.2039203036E-35 -0.4937091453E-31 -0.4936538367E-31  0.0000000000E+00 -0.5530860138E-35  0.1004273776E-33 -0.1297470735E-31  0.2127143230E-30  0.0000000000E+00 -0.6415227062E-36  0.1813328814E-34 -0.8185841721E-35  0.0000000000E+00  0.0000000000E+00 -0.4936538367E-31  0.1004273776E-33  0.2039203036E-35 -0.5530860138E-35
24  0.2410776587E-34 -0.2452799417E-35 -0.1016027663E-35 -0.1251371116E-34  0.6677933094E-34  0.3310523564E-34 -0.6221348115E-31  0.9829558087E-34 -0.1468497251E-31  0.2446327817E-30 -0.8474236011E-35  0.0000000000E+00  0.9829558087E-34  0.1992782084E-35 -0.6221348115E-31 -0.6220789534E-31  0.0000000000E+00 -0.5585816841E-35  0.9829558087E-34 -0.1468431503E-31  0.2446147775E-30  0.0000000000E+00 -0.6574828653E-36  0.1800415359E-34 -0.8474236011E-35  0.0000000000E+00  0.0000000000E+00 -0.6220789534E-31  0.9829558087E-34  0.1992782084E-35 -0.5585816841E-35
25  0.1683978444E-34  0.4106842400E-35 -0.1609714250E-35 -0.2433324614E-34  0.5056359470E-34  0.1490231857E-34 -0.6998972811E-31  0.9694428771E-34 -0.1612461132E-31  0.2648487960E-30 -0.8670829330E-35  0.0000000000E+00  0.9694428771E-34  0.1955107678E-35 -0.6998972811E-31 -0.6998413624E-31  0.0000000000E+00 -0.5591865891E-35  0.9694428771E-34 -0.1612392681E-31  0.2648310293E-30  0.0000000000E+00 -0.6845044746E-36  0.1776664015E-34 -0.8670829330E-35  0.0000000000E+00  0.0000000000E+00 -0.6998413624E-31  0.9694428771E-34  0.1955107678E-35 -0.5591865891E-35
26  0.1278666563E-34  0.3596455880E-35 -0.2267163293E-35 -0.2367473616E-34  0.3637859813E-34  0.5873907649E-35 -0.7399780474E-31  0.9603306130E-34 -0.1727705467E-31  0.2765171332E-30 -0.8831562553E-35  0.0000000000E+00  0.9603306130E-34  0.1913056812E-35 -0.7399780474E-31 -0.7399223537E-31  0.0000000000E+00 -0.5569371072E-35  0.9603306130E-34 -0.1727633978E-31  0.2764996539E-30  0.0000000000E+00 -0.7148880050E-36  0.1747933267E-34 -0.8831562553E-35  0.0000000000E+00  0.0000000000E+00 -0.7399223537E-31  0.9603306130E-34  0.1913056812E-35 -0.5569371072E-35
27  0.1036691544E-34 -0.1034873227E-35 -0.2604144260E-35 -0.1726045725E-34  0.2434361562E-34  0.1986599801E-35 -0.7559207008E-31  0.9536939903E-34 -0.1812187062E-31  0.2821569556E-30 -0.8980941514E-35  0.0000000000E+00  0.9536939903E-34  0.1867325276E-35 -0.7559207008E-31 -0.7558652366E-31  0.0000000000E+00 -0.5546424708E-35  0.9536939903E-34 -0.1812112785E-31  0.2821397233E-30  0.0000000000E+00 -0.7427615568E-36  0.1723234436E-34 -0.8980941514E-35  0.0000000000E+00  0.0000000000E+00 -0.7558652366E-31  0.9536939903E-34  0.1867325276E-35 -0.5546424708E-35
28  0.8389356241E-35 -0.4789893195E-35 -0.2475811899E-35 -0.1023756827E-34  0.1595125907E-34  0.7656636427E-36 -0.7594973513E-31  0.9486700215E-34 -0.1870565263E-31  0.2841139919E-30 -0.9122828271E-35  0.0000000000E+00  0.9486700215E-34  0.1823681304E-35 -0.7594973513E-31 -0.7594419978E-31  0.0000000000E+00 -0.5535347335E-35  0.9486700215E-34 -0.1870488891E-31  0.2840969264E-30  0.0000000000E+00 -0.7637240645E-36  0.1706559590E-34 -0.9122828271E-35  0.0000000000E+00  0.0000000000E+00 -0.7594419978E-31  0.9486700215E-34  0.1823681304E-35 -0.5535347335E-35
29  0.6505388973E-35 -0.5729343376E-35 -0.1981658722E-35 -0.5046381733E-35  0.1079461032E-34  0.7969008563E-36 -0.7586855300E-31  0.9449418031E-34 -0.1909543603E-31  0.2842873823E-30 -0.9251694478E-35  0.0000000000E+00  0.9449418031E-34  0.1787413318E-35 -0.7586855300E-31 -0.7586301889E-31  0.0000000000E+00 -0.5534104284E-35  0.9449418031E-34 -0.1909465997E-31  0.2842704139E-30  0.0000000000E+00 -0.7760633767E-36  0.1696843928E-34 -0.9251694478E-35  0.0000000000E+00  0.0000000000E+00 -0.7586301889E-31  0.9449418031E-34  0.1787413318E-35 -0.5534104284E-35
30  0.4755791580E-35 -0.4586811009E-35 -0.1368430270E-35 -0.2102906399E-35  0.7930793398E-35  0.1178922862E-35 -0.7575855509E-31  0.9423275026E-34 -0.1934537997E-31  0.2839383087E-30 -0.9360950229E-35  0.0000000000E+00  0.9423275026E-34  0.1760997422E-35 -0.7575855509E-31 -0.7575301940E-31  0.0000000000E+00 -0.5535689520E-35  0.9423275026E-34 -0.1934459923E-31  0.2839213994E-30  0.0000000000E+00 -0.7807358919E-36  0.1690923000E-34 -0.9360950229E-35  0.0000000000E+00  0.0000000000E+00 -0.7575301940E-31  0.9423275026E-34  0.1760997422E-35 -0.5535689520E-35
31  0.3330832316E-35 -0.2723935019E-35 -0.8524245578E-36 -0.8806758180E-36  0.6304519837E-35  0.1375167775E-35 -0.7571431432E-31  0.9406739948E-34 -0.1949461318E-31  0.2835628861E-30 -0.9445986964E-35  0.0000000000E+00  0.9406739948E-34  0.1744396292E-35 -0.7571431432E-31 -0.7570877768E-31  0.0000000000E+00 -0.5536644544E-35  0.9406739948E-34 -0.1949383257E-31  0.2835460182E-30  0.0000000000E+00 -0.7806108481E-36  0.1686789267E-34 -0.9445986964E-35  0.0000000000E+00  0.0000000000E+00 -0.7570877768E-31  0.9406739948E-34  0.1744396292E-35 -0.5536644544E-35
32  0.2271320895E-35 -0.1075485903E-35 -0.5176590506E-36 -0.5901492000E-36  0.5263942195E-35  0.1329299469E-35 -0.7573608710E-31  0.9397416019E-34 -0.1957493696E-31  0.2833723458E-30 -0.9506888227E-35  0.0000000000E+00  0.9397416019E-34  0.1735666685E-35 -0.7573608710E-31 -0.7573055164E-31  0.0000000000E+00 -0.5535458724E-35  0.9397416019E-34 -0.1957415844E-31  0.2833555140E-30  0.0000000000E+00 -0.7785195391E-36  0.1683182322E-34 -0.9506888227E-35  0.0000000000E+00  0.0000000000E+00 -0.7573055164E-31  0.9397416019E-34  0.1735666685E-35 -0.5535458724E-35
33  0.1564902835E-35  0.1364936794E-37 -0.3265223436E-36 -0.5907366234E-36  0.4318023580E-35  0.1119120010E-35 -0.7578535886E-31  0.9392848951E-34 -0.1961212378E-31  0.2833590087E-30 -0.9547124548E-35  0.0000000000E+00  0.9392848951E-34  0.1732272156E-35 -0.7578535886E-31 -0.7577982614E-31  0.0000000000E+00 -0.5532712869E-35  0.9392848951E-34 -0.1961134736E-31  0.2833422105E-30  0.0000000000E+00 -0.7764177175E-36  0.1679816615E-34 -0.9547124548E-35  0.0000000000E+00  0.0000000000E+00 -0.7577982614E-31  0.9392848951E-34  0.1732272156E-35 -0.5532712869E-35
34  0.1101068174E-35  0.5362194193E-36 -0.2133191283E-36 -0.5890264198E-36  0.3369199637E-35  0.8473144113E-36 -0.7583276185E-31  0.9390974985E-34 -0.1962656948E-31  0.2834521666E-30 -0.9571822094E-35  0.0000000000E+00  0.9390974985E-34  0.1731900450E-35 -0.7583276185E-31 -0.7582723233E-31  0.0000000000E+00 -0.5529519991E-35  0.9390974985E-34 -0.1962579430E-31  0.2834353984E-30  0.0000000000E+00 -0.7751847683E-36  0.1676820303E-34 -0.9571822094E-35  0.0000000000E+00  0.0000000000E+00 -0.7582723233E-31  0.9390974985E-34  0.1731900450E-35 -0.5529519991E-35
35  0.7907600526E-36  0.6390709122E-36 -0.1356040498E-36 -0.5423252107E-36  0.2469528693E-35  0.5792959768E-36 -0.7586730078E-31  0.9390349423E-34 -0.1963214453E-31  0.2835867089E-30 -0.9586173607E-35  0.0000000000E+00  0.9390349423E-34  0.1732864505E-35 -0.7586730078E-31 -0.7586177402E-31  0.0000000000E+00 -0.5526759120E-35  0.9390349423E-34 -0.1963136965E-31  0.2835699651E-30  0.0000000000E+00 -0.7748867872E-36  0.1674378061E-34 -0.9586173607E-35  0.0000000000E+00  0.0000000000E+00 -0.7586177402E-31  0.9390349423E-34  0.1732864505E-35 -0.5526759120E-35
36  0.5732623537E-36  0.5061084660E-36 -0.7481706215E-37 -0.4676820886E-36  0.1717099419E-35  0.3503786095E-36 -0.7589049191E-31  0.9390137471E-34 -0.1963622651E-31  0.2837233679E-30 -0.9594415154E-35  0.0000000000E+00  0.9390137471E-34  0.1734151087E-35 -0.7589049191E-31 -0.7588496707E-31  0.0000000000E+00 -0.5524835621E-35  0.9390137471E-34 -0.1963545130E-31  0.2837066422E-30  0.0000000000E+00 -0.7752057070E-36  0.1672564680E-34 -0.9594415154E-35  0.0000000000E+00  0.0000000000E+00 -0.7588496707E-31  0.9390137471E-34  0.1734151087E-35 -0.5524835621E-35
37  0.4155431825E-36  0.3025042600E-36 -0.2676713121E-37 -0.3741196783E-36  0.1159025092E-35  0.1805759790E-36 -0.7590796958E-31  0.9389964101E-34 -0.1964146049E-31  0.2838448845E-30 -0.9599461185E-35  0.0000000000E+00  0.9389964101E-34  0.1735278519E-35 -0.7590796958E-31 -0.7590244582E-31  0.0000000000E+00 -0.5523759923E-35  0.9389964101E-34 -0.1964068472E-31  0.2838281712E-30  0.0000000000E+00 -0.7757724604E-36  0.1671330061E-34 -0.9599461185E-35  0.0000000000E+00  0.0000000000E+00 -0.7590244582E-31  0.9389964101E-34  0.1735278519E-35 -0.5523759923E-35
38  0.2996840353E-36  0.1325991024E-36  0.7758395267E-38 -0.2688426896E-36  0.7834025198E-36  0.7346824652E-37 -0.7592414737E-31  0.9389728406E-34 -0.1964789094E-31  0.2839467153E-30 -0.9603013322E-35  0.0000000000E+00  0.9389728406E-34  0.1736098247E-35 -0.7592414737E-31 -0.7591862405E-31  0.0000000000E+00 -0.5523319246E-35  0.9389728406E-34 -0.1964711461E-31  0.2839300098E-30  0.0000000000E+00 -0.7763308932E-36  0.1670546759E-34 -0.9603013322E-35  0.0000000000E+00  0.0000000000E+00 -0.7591862405E-31  0.9389728406E-34  0.1736098247E-35 -0.5523319246E-35
39  0.2154331440E-36  0.3044991987E-37  0.2786291204E-37 -0.1638828208E-36  0.5465451268E-36  0.1817576276E-37 -0.7594053174E-31  0.9389451128E-34 -0.1965462520E-31  0.2840293675E-30 -0.9605895616E-35  0.0000000000E+00  0.9389451128E-34  0.1736626127E-35 -0.7594053174E-31 -0.7593500850E-31  0.0000000000E+00 -0.5523243579E-35  0.9389451128E-34 -0.1965384843E-31  0.2840126668E-30  0.0000000000E+00 -0.7767639262E-36  0.1670069317E-34 -0.9605895616E-35  0.0000000000E+00  0.0000000000E+00 -0.7593500850E-31  0.9389451128E-34  0.1736626127E-35 -0.5523243579E-35
40  0.1554201717E-36 -0.1353561008E-37  0.3499718759E-37 -0.7285234560E-37  0.4011264000E-36 -0.1881453357E-38 -0.7595651714E-31  0.9389179643E-34 -0.1966073349E-31  0.2840947915E-30 -0.9608408462E-35  0.0000000000E+00  0.9389179643E-34  0.1736935335E-35 -0.7595651714E-31 -0.7595099383E-31  0.0000000000E+00 -0.5523311181E-35  0.9389179643E-34 -0.1965995644E-31  0.2840780938E-30  0.0000000000E+00 -0.7770527900E-36  0.1669774791E-34 -0.9608408462E-35  0.0000000000E+00  0.0000000000E+00 -0.7595099383E-31  0.9389179643E-34  0.1736935335E-35 -0.5523311181E-35
41  0.1134012038E-36 -0.2157524704E-37  0.3315233191E-37 -0.5903752555E-38  0.3087866776E-36 -0.2424874625E-38 -0.7597054440E-31  0.9388949825E-34 -0.1966571210E-31  0.2841442984E-30 -0.9610605115E-35  0.0000000000E+00  0.9388949825E-34  0.1737100755E-35 -0.7597054440E-31 -0.7596502100E-31  0.0000000000E+00 -0.5523396273E-35  0.9388949825E-34 -0.1966493487E-31  0.2841276025E-30  0.0000000000E+00 -0.7772270838E-36  0.1669582466E-34 -0.9610605115E-35  0.0000000000E+00  0.0000000000E+00 -0.7596502100E-31  0.9388949825E-34  0.1737100755E-35 -0.5523396273E-35
42  0.8376709652E-37 -0.1288127653E-37  0.2707143241E-37  0.3328160315E-37  0.2451929396E-36  0.4769228528E-38 -0.7598167588E-31  0.9388773515E-34 -0.1966939198E-31  0.2841801899E-30 -0.9612458619E-35  0.0000000000E+00  0.9388773515E-34  0.1737181940E-35 -0.7598167588E-31 -0.7597615244E-31  0.0000000000E+00 -0.5523447081E-35  0.9388773515E-34 -0.1966861465E-31  0.2841634954E-30  0.0000000000E+00 -0.7773237312E-36  0.1669445882E-34 -0.9612458619E-35  0.0000000000E+00  0.0000000000E+00 -0.7597615244E-31  0.9388773515E-34  0.1737181940E-35 -0.5523447081E-35
43  0.6259383410E-37  0.2908673160E-39  0.2035094343E-37  0.4799283760E-37  0.1960271295E-36  0.1243022169E-37 -0.7598971757E-31  0.9388647220E-34 -0.1967186185E-31  0.2842049922E-30 -0.9613945167E-35  0.0000000000E+00  0.9388647220E-34  0.1737220454E-35 -0.7598971757E-31 -0.7598419411E-31  0.0000000000E+00 -0.5523460308E-35  0.9388647220E-34 -0.1967108448E-31  0.2841882987E-30  0.0000000000E+00 -0.7773714853E-36  0.1669343213E-34 -0.9613945167E-35  0.0000000000E+00  0.0000000000E+00 -0.7598419411E-31  0.9388647220E-34  0.1737220454E-35 -0.5523460308E-35
44  0.4706679603E-37  0.1145504699E-37  0.1473222896E-37  0.4616777388E-37  0.1554613919E-36  0.1727476470E-37 -0.7599511406E-31  0.9388560909E-34 -0.1967334427E-31  0.2842214273E-30 -0.9615071135E-35  0.0000000000E+00  0.9388560909E-34  0.1737242835E-35 -0.7599511406E-31 -0.7598959061E-31  0.0000000000E+00 -0.5523450535E-35  0.9388560909E-34 -0.1967256688E-31  0.2842047346E-30  0.0000000000E+00 -0.7773883231E-36  0.1669265028E-34 -0.9615071135E-35  0.0000000000E+00  0.0000000000E+00 -0.7598959061E-31  0.9388560909E-34  0.1737242835E-35 -0.5523450535E-35
45  0.3550919421E-37  0.1823361571E-37  0.1059983539E-37  0.3651619784E-37  0.1214551840E-36  0.1881217006E-37 -0.7599859517E-31  0.9388503983E-34 -0.1967409649E-31  0.2842320718E-30 -0.9615872577E-35  0.0000000000E+00  0.9388503983E-34  0.1737264319E-35 -0.7599859517E-31 -0.7599307174E-31  0.0000000000E+00 -0.5523432516E-35  0.9388503983E-34 -0.1967331910E-31  0.2842153797E-30  0.0000000000E+00 -0.7773845509E-36  0.1669206463E-34 -0.9615872577E-35  0.0000000000E+00  0.0000000000E+00 -0.7599307174E-31  0.9388503983E-34  0.1737264319E-35 -0.5523432516E-35
46  0.2684568153E-37  0.2068251443E-37  0.7752490540E-38  0.2550146108E-37  0.9344878937E-37  0.1791877327E-37 -0.7600086507E-31  0.9388467787E-34 -0.1967435225E-31  0.2842390446E-30 -0.9616404121E-35  0.0000000000E+00  0.9388467787E-34  0.1737291932E-35 -0.7600086507E-31 -0.7599534166E-31  0.0000000000E+00 -0.5523414734E-35  0.9388467787E-34 -0.1967357488E-31  0.2842223530E-30  0.0000000000E+00 -0.7773667989E-36  0.1669163577E-34 -0.9616404121E-35  0.0000000000E+00  0.0000000000E+00 -0.7599534166E-31  0.9388467787E-34  0.1737291932E-35 -0.5523414734E-35
47  0.2034198174E-37  0.2001166362E-37  0.5850826196E-38  0.1645093730E-37  0.7101635640E-37  0.1575635882E-37 -0.7600243918E-31  0.9388445901E-34 -0.1967429916E-31  0.2842438509E-30 -0.9616726939E-35  0.0000000000E+00  0.9388445901E-34  0.1737327093E-35 -0.7600243918E-31 -0.7599691578E-31  0.0000000000E+00 -0.5523399992E-35  0.9388445901E-34 -0.1967352182E-31  0.2842271595E-30  0.0000000000E+00 -0.7773403815E-36  0.1669132558E-34 -0.9616726939E-35  0.0000000000E+00  0.0000000000E+00 -0.7599691578E-31  0.9388445901E-34  0.1737327093E-35 -0.5523399992E-35
48  0.1545204954E-37  0.1765227640E-37  0.4591765280E-38  0.1022315091E-37  0.5354480400E-37  0.1322290954E-37 -0.7600362118E-31  0.9388433630E-34 -0.1967407603E-31  0.2842474139E-30 -0.9616899562E-35  0.0000000000E+00  0.9388433630E-34  0.1737367855E-35 -0.7600362118E-31 -0.7599809779E-31  0.0000000000E+00 -0.5523388151E-35  0.9388433630E-34 -0.1967329872E-31  0.2842307228E-30  0.0000000000E+00 -0.7773099814E-36  0.1669110026E-34 -0.9616899562E-35  0.0000000000E+00  0.0000000000E+00 -0.7599809779E-31  0.9388433630E-34  0.1737367855E-35 -0.5523388151E-35
49  0.1176619447E-37  0.1473703824E-37  0.3744796724E-38  0.6370491827E-38  0.4023909815E-37  0.1082372823E-37 -0.7600455656E-31  0.9388427487E-34 -0.1967377871E-31  0.2842502186E-30 -0.9616972332E-35  0.0000000000E+00  0.9388427487E-34  0.1737410787E-35 -0.7600455656E-31 -0.7599903318E-31  0.0000000000E+00 -0.5523378369E-35  0.9388427487E-34 -0.1967300143E-31  0.2842335277E-30  0.0000000000E+00 -0.7772794291E-36  0.1669093384E-34 -0.9616972332E-35  0.0000000000E+00  0.0000000000E+00 -0.7599903318E-31  0.9388427487E-34  0.1737410787E-35 -0.5523378369E-35
50  0.8979012238E-38  0.1193917255E-37  0.3146817994E-38  0.4085728377E-38  0.3025398877E-37  0.8752645811E-38 -0.7600530360E-31  0.9388424887E-34 -0.1967346823E-31  0.2842524836E-30 -0.9616984909E-35  0.0000000000E+00  0.9388424887E-34  0.1737452405E-35 -0.7600530360E-31 -0.7599978023E-31  0.0000000000E+00 -0.5523370111E-35  0.9388424887E-34 -0.1967269098E-31  0.2842357928E-30  0.0000000000E+00 -0.7772513756E-36  0.1669080877E-34 -0.9616984909E-35  0.0000000000E+00  0.0000000000E+00 -0.7599978023E-31  0.9388424887E-34  0.1737452405E-35 -0.5523370111E-35
51  0.6865576321E-38  0.9541129560E-38  0.2688645265E-38  0.2700015181E-38  0.2280708299E-37  0.7026299387E-38 -0.7600588662E-31  0.9388424029E-34 -0.1967317936E-31  0.2842542979E-30 -0.9616966038E-35  0.0000000000E+00  0.9388424029E-34  0.1737490025E-35 -0.7600588662E-31 -0.7600036325E-31  0.0000000000E+00 -0.5523363261E-35  0.9388424029E-34 -0.1967240213E-31  0.2842376072E-30  0.0000000000E+00 -0.7772272296E-36  0.1669071413E-34 -0.9616966038E-35  0.0000000000E+00  0.0000000000E+00 -0.7600036325E-31  0.9388424029E-34  0.1737490025E-35 -0.5523363261E-35
52  0.5259135730E-38  0.7585804021E-38  0.2303190155E-38  0.1811056311E-38  0.1725004527E-37  0.5594869580E-38 -0.7600632577E-31  0.9388423784E-34 -0.1967292819E-31  0.2842557123E-30 -0.9616934690E-35  0.0000000000E+00  0.9388423784E-34  0.1737522113E-35 -0.7600632577E-31 -0.7600080241E-31  0.0000000000E+00 -0.5523357852E-35  0.9388423784E-34 -0.1967215098E-31  0.2842390216E-30  0.0000000000E+00 -0.7772073726E-36  0.1669064296E-34 -0.9616934690E-35  0.0000000000E+00  0.0000000000E+00 -0.7600080241E-31  0.9388423784E-34  0.1737522113E-35 -0.5523357852E-35