TITLE="fun3d_case_title"
VARIABLES="Iteration" "R_1" "R_2" "R_3" "R_4" "R_5" "C_L" "C_D" "C_M_x" "C_M_y" "C_M_z" "Wall Time" "C_x" "C_y" "C_z" "C_Lp" "C_Dp" "C_Lv" "C_Dv" "C_M_xp" "C_M_yp" "C_M_zp" "C_M_xv" "C_M_yv" "C_M_zv" "C_xp" "C_yp" "C_zp" "C_xv" "C_yv" "C_zv"
ZONE  I=100 F=POINT
1  0.1163258375E-33 -0.2031421854E-34  0.0000000000E+00 -0.1560897506E-49 -0.4001122982E-34  0.1373069440E-29  0.1486403146E-45  0.4450368146E-32 -0.2818323176E-29  0.1975042417E-46  0.0000000000E+00  0.1221381633E-46  0.6979797948E-47  0.1373069440E-29  0.1373069440E-29  0.1486403146E-45  0.0000000000E+00  0.0000000000E+00  0.4450368146E-32 -0.2818323176E-29  0.1975042417E-46  0.0000000000E+00  0.0000000000E+00  0.0000000000E+00  0.1221381633E-46  0.6979797948E-47  0.1373069440E-29  0.0000000000E+00  0.0000000000E+00  0.0000000000E+00
2 -0.1593742388E-33 -0.7722177953E-34 -0.6880528580E-36  0.3190523534E-34 -0.4225991184E-33  0.1236162736E-29 -0.4279797970E-36 -0.6170568601E-32 -0.2249480578E-29 -0.5270213207E-37  0.0000000000E+00 -0.3448717964E-36  0.5219374005E-38  0.1236162736E-29  0.1236162736E-29 -0.4279797970E-36  0.0000000000E+00  0.0000000000E+00 -0.6170568601E-32 -0.2249480578E-29 -0.5270213207E-37  0.0000000000E+00  0.0000000000E+00  0.0000000000E+00 -0.3448717964E-36  0.5219374005E-38  0.1236162736E-29  0.0000000000E+00  0.0000000000E+00  0.0000000000E+00
3  0.2070578263E-34 -0.4270242327E-34 -0.1127557551E-34 -0.1225303630E-33  0.2828132463E-34  0.1185720978E-29 -0.4039416090E-34  0.4943971523E-32 -0.2126156876E-29 -0.4845842928E-35  0.0000000000E+00 -0.3231425049E-34  0.6185387998E-36  0.1185720980E-29  0.1185720978E-29 -0.4039416090E-34  0.0000000000E+00  0.0000000000E+00  0.4943971523E-32 -0.2126156876E-29 -0.4845842928E-35  0.0000000000E+00  0.0000000000E+00  0.0000000000E+00 -0.3231425049E-34  0.6185387998E-36  0.1185720980E-29  0.0000000000E+00  0.0000000000E+00  0.0000000000E+00
4  0.2983245104E-34 -0.7340574630E-34 -0.1290504153E-35 -0.3429097435E-34  0.5732967132E-34  0.1191621206E-29 -0.2886328710E-34  0.1010093473E-31 -0.2188622398E-29 -0.4365517309E-35  0.0000000000E+00 -0.3104095195E-34  0.7846621186E-36  0.1191621208E-29  0.1191621206E-29 -0.2886328710E-34  0.0000000000E+00  0.0000000000E+00  0.1010093473E-31 -0.2188622398E-29 -0.4365517309E-35  0.0000000000E+00  0.0000000000E+00  0.0000000000E+00 -0.3104095195E-34  0.7846621186E-36  0.1191621208E-29  0.0000000000E+00  0.0000000000E+00  0.0000000000E+00
5 -0.3493534988E-35 -0.5688603023E-34  0.3105562613E-35 -0.2201593861E-34  0.1486120303E-35  0.1203002002E-29 -0.2701599852E-34  0.9975608057E-32 -0.2244286309E-29 -0.4343195328E-35  0.0000000000E+00 -0.3071225506E-34  0.7897481396E-36  0.1203002003E-29  0.1203002002E-29 -0.2701599852E-34  0.0000000000E+00  0.0000000000E+00  0.9975608057E-32 -0.2244286309E-29 -0.4343195328E-35  0.0000000000E+00  0.0000000000E+00  0.0000000000E+00 -0.3071225506E-34  0.7897481396E-36  0.1203002003E-29  0.0000000000E+00  0.0000000000E+00  0.0000000000E+00
6  0.4131224378E-35 -0.6403066624E-34 -0.3200553040E-35 -0.3739588884E-34  0.1021535289E-35  0.1208291589E-29 -0.2850577136E-34  0.8945143085E-32 -0.2266957929E-29 -0.4399272218E-35  0.0000000000E+00 -0.3070561083E-34  0.7622930954E-36  0.1208291590E-29  0.1208291589E-29 -0.2850577136E-34  0.0000000000E+00  0.0000000000E+00  0.8945143085E-32 -0.2266957929E-29 -0.4399272218E-35  0.0000000000E+00  0.0000000000E+00  0.0000000000E+00 -0.3070561083E-34  0.7622930954E-36  0.1208291590E-29  0.0000000000E+00  0.0000000000E+00  0.0000000000E+00
7 -0.4399192742E-35 -0.4874452986E-34 -0.2863728580E-35 -0.2670800036E-34 -0.3639712307E-34  0.1209826432E-29 -0.2974780098E-34  0.8423364909E-32 -0.2273909319E-29 -0.4406230143E-35  0.0000000000E+00 -0.3069998373E-34  0.7499770033E-36  0.1209826433E-29  0.1209826432E-29 -0.2974780098E-34  0.0000000000E+00  0.0000000000E+00  0.8423364909E-32 -0.2273909319E-29 -0.4406230143E-35  0.0000000000E+00  0.0000000000E+00  0.0000000000E+00 -0.3069998373E-34  0.7499770033E-36  0.1209826433E-29  0.0000000000E+00  0.0000000000E+00  0.0000000000E+00
8 -0.6879429705E-35 -0.3718114543E-34 -0.3061603445E-35 -0.1717042434E-34 -0.3260389958E-34  0.1209941069E-29 -0.3022200584E-34  0.8320695811E-32 -0.2275957013E-29 -0.4390310488E-35  0.0000000000E+00 -0.3065044715E-34  0.7478405170E-36  0.1209941070E-29  0.1209941069E-29 -0.3022200584E-34  0.0000000000E+00  0.0000000000E+00  0.8320695811E-32 -0.2275957013E-29 -0.4390310488E-35  0.0000000000E+00  0.0000000000E+00  0.0000000000E+00 -0.3065044715E-34  0.7478405170E-36  0.1209941070E-29  0.0000000000E+00  0.0000000000E+00  0.0000000000E+00
9 -0.5100577013E-35 -0.2932167047E-34 -0.2488025069E-35 -0.1111132614E-34 -0.2501559377E-34  0.1209898338E-29 -0.3028892678E-34  0.8251541789E-32 -0.2277391570E-29 -0.4389910968E-35  0.0000000000E+00 -0.3059354247E-34  0.7444686950E-36  0.1209898339E-29  0.1209898338E-29 -0.3028892678E-34  0.0000000000E+00  0.0000000000E+00  0.8251541789E-32 -0.2277391570E-29 -0.4389910968E-35  0.0000000000E+00  0.0000000000E+00  0.0000000000E+00 -0.3059354247E-34  0.7444686950E-36  0.1209898339E-29  0.0000000000E+00  0.0000000000E+00  0.0000000000E+00
10 -0.3658055687E-35 -0.2311756991E-34 -0.1899730333E-35 -0.7510494914E-35 -0.1990163817E-34  0.1209979086E-29 -0.3025490226E-34  0.8146614342E-32 -0.2278965457E-29 -0.4402808061E-35  0.0000000000E+00 -0.3054935640E-34  0.7389475921E-36  0.1209979087E-29  0.1209979086E-29 -0.3025490226E-34  0.0000000000E+00  0.0000000000E+00  0.8146614342E-32 -0.2278965457E-29 -0.4402808061E-35  0.0000000000E+00  0.0000000000E+00  0.0000000000E+00 -0.3054935640E-34  0.7389475921E-36  0.1209979087E-29  0.0000000000E+00  0.0000000000E+00  0.0000000000E+00
11 -0.2813184026E-35 -0.1791713627E-34 -0.1606506615E-35 -0.5318633518E-35 -0.1526903154E-34  0.1210167126E-29 -0.3022840667E-34  0.8021453242E-32 -0.2280628571E-29 -0.4419279416E-35  0.0000000000E+00 -0.3051783117E-34  0.7331131798E-36  0.1210167127E-29  0.1210167126E-29 -0.3022840667E-34  0.0000000000E+00  0.0000000000E+00  0.8021453242E-32 -0.2280628571E-29 -0.4419279416E-35  0.0000000000E+00  0.0000000000E+00  0.0000000000E+00 -0.3051783117E-34  0.7331131798E-36  0.1210167127E-29  0.0000000000E+00  0.0000000000E+00  0.0000000000E+00
12 -0.2296150648E-35 -0.1363481176E-34 -0.1319946511E-35 -0.3837937297E-35 -0.1168897496E-34  0.1210387890E-29 -0.3022116173E-34  0.7903685479E-32 -0.2282212018E-29 -0.4433480794E-35  0.0000000000E+00 -0.3049363946E-34  0.7281889994E-36  0.1210387890E-29  0.1210387890E-29 -0.3022116173E-34  0.0000000000E+00  0.0000000000E+00  0.7903685479E-32 -0.2282212018E-29 -0.4433480794E-35  0.0000000000E+00  0.0000000000E+00  0.0000000000E+00 -0.3049363946E-34  0.7281889994E-36  0.1210387890E-29  0.0000000000E+00  0.0000000000E+00  0.0000000000E+00
13 -0.1775985327E-35 -0.1028964817E-34 -0.1094939221E-35 -0.2743257972E-35 -0.8812386541E-35  0.1210601912E-29 -0.3022314400E-34  0.7799785474E-32 -0.2283620675E-29 -0.4444757013E-35  0.0000000000E+00 -0.3047379526E-34  0.7242435031E-36  0.1210601913E-29  0.1210601912E-29 -0.3022314400E-34  0.0000000000E+00  0.0000000000E+00  0.7799785474E-32 -0.2283620675E-29 -0.4444757013E-35  0.0000000000E+00  0.0000000000E+00  0.0000000000E+00 -0.3047379526E-34  0.7242435031E-36  0.1210601913E-29  0.0000000000E+00  0.0000000000E+00  0.0000000000E+00
14 -0.1322061373E-35 -0.7732592520E-35 -0.9140971663E-36 -0.1925756204E-35 -0.6564959110E-35  0.1210790147E-29 -0.3022782412E-34  0.7711944855E-32 -0.2284795311E-29 -0.4453758559E-35  0.0000000000E+00 -0.3045763044E-34  0.7210647849E-36  0.1210790147E-29  0.1210790147E-29 -0.3022782412E-34  0.0000000000E+00  0.0000000000E+00  0.7711944855E-32 -0.2284795311E-29 -0.4453758559E-35  0.0000000000E+00  0.0000000000E+00  0.0000000000E+00 -0.3045763044E-34  0.7210647849E-36  0.1210790147E-29  0.0000000000E+00  0.0000000000E+00  0.0000000000E+00
15 -0.9739010653E-36 -0.5775070448E-35 -0.7631936065E-36 -0.1348637909E-35 -0.4853303540E-35  0.1210945116E-29 -0.3023271016E-34  0.7639712486E-32 -0.2285715780E-29 -0.4461139534E-35  0.0000000000E+00 -0.3044510875E-34  0.7184643997E-36  0.1210945117E-29  0.1210945116E-29 -0.3023271016E-34  0.0000000000E+00  0.0000000000E+00  0.7639712486E-32 -0.2285715780E-29 -0.4461139534E-35  0.0000000000E+00  0.0000000000E+00  0.0000000000E+00 -0.3044510875E-34  0.7184643997E-36  0.1210945117E-29  0.0000000000E+00  0.0000000000E+00  0.0000000000E+00
16 -0.7120934984E-36 -0.4281187364E-35 -0.6258010272E-36 -0.9639755420E-36 -0.3562420976E-35  0.1211064889E-29 -0.3023689190E-34  0.7582147791E-32 -0.2286397279E-29 -0.4467197473E-35  0.0000000000E+00 -0.3043589401E-34  0.7163472060E-36  0.1211064890E-29  0.1211064889E-29 -0.3023689190E-34  0.0000000000E+00  0.0000000000E+00  0.7582147791E-32 -0.2286397279E-29 -0.4467197473E-35  0.0000000000E+00  0.0000000000E+00  0.0000000000E+00 -0.3043589401E-34  0.7163472060E-36  0.1211064890E-29  0.0000000000E+00  0.0000000000E+00  0.0000000000E+00
17 -0.5148463909E-36 -0.3150763971E-35 -0.4983819992E-36 -0.7106016234E-36 -0.2592842676E-35  0.1211152649E-29 -0.3023996789E-34  0.7537325871E-32 -0.2286882398E-29 -0.4472087126E-35  0.0000000000E+00 -0.3042931524E-34  0.7146528523E-36  0.1211152650E-29  0.1211152649E-29 -0.3023996789E-34  0.0000000000E+00  0.0000000000E+00  0.7537325871E-32 -0.2286882398E-29 -0.4472087126E-35  0.0000000000E+00  0.0000000000E+00  0.0000000000E+00 -0.3042931524E-34  0.7146528523E-36  0.1211152650E-29  0.0000000000E+00  0.0000000000E+00  0.0000000000E+00
18 -0.3690138261E-36 -0.2304178439E-35 -0.3854025553E-36 -0.5370663205E-36 -0.1873835275E-35  0.1211214547E-29 -0.3024193357E-34  0.7503126620E-32 -0.2287222562E-29 -0.4475917298E-35  0.0000000000E+00 -0.3042462740E-34  0.7133315053E-36  0.1211214548E-29  0.1211214547E-29 -0.3024193357E-34  0.0000000000E+00  0.0000000000E+00  0.7503126620E-32 -0.2287222562E-29 -0.4475917298E-35  0.0000000000E+00  0.0000000000E+00  0.0000000000E+00 -0.3042462740E-34  0.7133315053E-36  0.1211214548E-29  0.0000000000E+00  0.0000000000E+00  0.0000000000E+00
19 -0.2636747664E-36 -0.1676817713E-35 -0.2906082346E-36 -0.4096369268E-36 -0.1347809856E-35  0.1211257471E-29 -0.3024304675E-34  0.7477499099E-32 -0.2287463388E-29 -0.4478812746E-35  0.0000000000E+00 -0.3042121628E-34  0.7123312480E-36  0.1211257472E-29  0.1211257471E-29 -0.3024304675E-34  0.0000000000E+00  0.0000000000E+00  0.7477499099E-32 -0.2287463388E-29 -0.4478812746E-35  0.0000000000E+00  0.0000000000E+00  0.0000000000E+00 -0.3042121628E-34  0.7123312480E-36  0.1211257472E-29  0.0000000000E+00  0.0000000000E+00  0.0000000000E+00
20 -0.1888264744E-36 -0.1216257605E-35 -0.2142988789E-36 -0.3109401193E-36 -0.9670337722E-36  0.1211287249E-29 -0.3024363541E-34  0.7458672175E-32 -0.2287637797E-29 -0.4480917573E-35  0.0000000000E+00 -0.3041866102E-34  0.7115982839E-36  0.1211287250E-29  0.1211287249E-29 -0.3024363541E-34  0.0000000000E+00  0.0000000000E+00  0.7458672175E-32 -0.2287637797E-29 -0.4480917573E-35  0.0000000000E+00  0.0000000000E+00  0.0000000000E+00 -0.3041866102E-34  0.7115982839E-36  0.1211287250E-29  0.0000000000E+00  0.0000000000E+00  0.0000000000E+00
21 -0.1359737054E-36 -0.8803004032E-36 -0.1549588590E-36 -0.2334701807E-36 -0.6929632862E-36  0.1211308066E-29 -0.3024395316E-34  0.7445128171E-32 -0.2287766534E-29 -0.4482389202E-35  0.0000000000E+00 -0.3041670546E-34  0.7110783953E-36  0.1211308067E-29  0.1211308066E-29 -0.3024395316E-34  0.0000000000E+00  0.0000000000E+00  0.7445128171E-32 -0.2287766534E-29 -0.4482389202E-35  0.0000000000E+00  0.0000000000E+00  0.0000000000E+00 -0.3041670546E-34  0.7110783953E-36  0.1211308067E-29  0.0000000000E+00  0.0000000000E+00  0.0000000000E+00
22 -0.9848377464E-37 -0.6358233856E-36 -0.1103617836E-36 -0.1734914517E-36 -0.4958606343E-36  0.1211322642E-29 -0.3024414350E-34  0.7435589342E-32 -0.2287861899E-29 -0.4483381741E-35  0.0000000000E+00 -0.3041519986E-34  0.7107205345E-36  0.1211322643E-29  0.1211322642E-29 -0.3024414350E-34  0.0000000000E+00  0.0000000000E+00  0.7435589342E-32 -0.2287861899E-29 -0.4483381741E-35  0.0000000000E+00  0.0000000000E+00  0.0000000000E+00 -0.3041519986E-34  0.7107205345E-36  0.1211322643E-29  0.0000000000E+00  0.0000000000E+00  0.0000000000E+00
23 -0.7157570600E-37 -0.4578554425E-36 -0.7783462337E-37 -0.1279790056E-36 -0.3538274983E-36  0.1211332737E-29 -0.3024426656E-34  0.7428998797E-32 -0.2287931654E-29 -0.4484031812E-35  0.0000000000E+00 -0.3041405033E-34  0.7104800531E-36  0.1211332738E-29  0.1211332737E-29 -0.3024426656E-34  0.0000000000E+00  0.0000000000E+00  0.7428998797E-32 -0.2287931654E-29 -0.4484031812E-35  0.0000000000E+00  0.0000000000E+00  0.0000000000E+00 -0.3041405033E-34  0.7104800531E-36  0.1211332738E-29  0.0000000000E+00  0.0000000000E+00  0.0000000000E+00
24 -0.5200844155E-37 -0.3282460450E-36 -0.5460675936E-37 -0.9396094356E-37 -0.2513491569E-36  0.1211339578E-29 -0.3024434120E-34  0.7424517663E-32 -0.2287981542E-29 -0.4484449039E-35  0.0000000000E+00 -0.3041318756E-34  0.7103209825E-36  0.1211339578E-29  0.1211339578E-29 -0.3024434120E-34  0.0000000000E+00  0.0000000000E+00  0.7424517663E-32 -0.2287981542E-29 -0.4484449039E-35  0.0000000000E+00  0.0000000000E+00  0.0000000000E+00 -0.3041318756E-34  0.7103209825E-36  0.1211339578E-29  0.0000000000E+00  0.0000000000E+00  0.0000000000E+00
25 -0.3766900368E-37 -0.2340172743E-36 -0.3821265834E-37 -0.6874211511E-37 -0.1775456051E-36  0.1211344099E-29 -0.3024437445E-34  0.7421510640E-32 -0.2288016402E-29 -0.4484713848E-35  0.0000000000E+00 -0.3041255279E-34  0.7102165463E-36  0.1211344100E-29  0.1211344099E-29 -0.3024437445E-34  0.0000000000E+00  0.0000000000E+00  0.7421510640E-32 -0.2288016402E-29 -0.4484713848E-35  0.0000000000E+00  0.0000000000E+00  0.0000000000E+00 -0.3041255279E-34  0.7102165463E-36  0.1211344100E-29  0.0000000000E+00  0.0000000000E+00  0.0000000000E+00
26 -0.2715782670E-37 -0.1658199624E-36 -0.2671433388E-37 -0.5012375138E-37 -0.1246547131E-36  0.1211347041E-29 -0.3024437473E-34  0.7419519484E-32 -0.2288040370E-29 -0.4484880679E-35  0.0000000000E+00 -0.3041209419E-34  0.7101482049E-36  0.1211347042E-29  0.1211347041E-29 -0.3024437473E-34  0.0000000000E+00  0.0000000000E+00  0.7419519484E-32 -0.2288040370E-29 -0.4484880679E-35  0.0000000000E+00  0.0000000000E+00  0.0000000000E+00 -0.3041209419E-34  0.7101482049E-36  0.1211347042E-29  0.0000000000E+00  0.0000000000E+00  0.0000000000E+00
27 -0.1949008109E-37 -0.1167883261E-36 -0.1868834159E-37 -0.3641254220E-37 -0.8700465805E-37  0.1211348963E-29 -0.3024435367E-34  0.7418225512E-32 -0.2288056789E-29 -0.4484984198E-35  0.0000000000E+00 -0.3041176740E-34  0.7101038122E-36  0.1211348964E-29  0.1211348963E-29 -0.3024435367E-34  0.0000000000E+00  0.0000000000E+00  0.7418225512E-32 -0.2288056789E-29 -0.4484984198E-35  0.0000000000E+00  0.0000000000E+00  0.0000000000E+00 -0.3041176740E-34  0.7101038122E-36  0.1211348964E-29  0.0000000000E+00  0.0000000000E+00  0.0000000000E+00
28 -0.1393342046E-37 -0.8180022880E-37 -0.1310838802E-37 -0.2632894445E-37 -0.6040100709E-37  0.1211350253E-29 -0.3024432336E-34  0.7417410865E-32 -0.2288068131E-29 -0.4485045854E-35  0.0000000000E+00 -0.3041153659E-34  0.7100756154E-36  0.1211350254E-29  0.1211350253E-29 -0.3024432336E-34  0.0000000000E+00  0.0000000000E+00  0.7417410865E-32 -0.2288068131E-29 -0.4485045854E-35  0.0000000000E+00  0.0000000000E+00  0.0000000000E+00 -0.3041153659E-34  0.7100756154E-36  0.1211350254E-29  0.0000000000E+00  0.0000000000E+00  0.0000000000E+00
29 -0.9928690255E-38 -0.5701696631E-37 -0.9234530135E-38 -0.1892301137E-37 -0.4173781901E-37  0.1211351156E-29 -0.3024429324E-34  0.7416925386E-32 -0.2288076087E-29 -0.4485079196E-35  0.0000000000E+00 -0.3041137435E-34  0.7100585822E-36  0.1211351157E-29  0.1211351156E-29 -0.3024429324E-34  0.0000000000E+00  0.0000000000E+00  0.7416925386E-32 -0.2288076087E-29 -0.4485079196E-35  0.0000000000E+00  0.0000000000E+00  0.0000000000E+00 -0.3041137435E-34  0.7100585822E-36  0.1211351157E-29  0.0000000000E+00  0.0000000000E+00  0.0000000000E+00
30 -0.7051285508E-38 -0.3957810732E-37 -0.6539659151E-38 -0.1350464285E-37 -0.2872882501E-37  0.1211351812E-29 -0.3024426869E-34  0.7416662878E-32 -0.2288081740E-29 -0.4485093385E-35  0.0000000000E+00 -0.3041126064E-34  0.7100492582E-36  0.1211351812E-29  0.1211351812E-29 -0.3024426869E-34  0.0000000000E+00  0.0000000000E+00  0.7416662878E-32 -0.2288081740E-29 -0.4485093385E-35  0.0000000000E+00  0.0000000000E+00  0.0000000000E+00 -0.3041126064E-34  0.7100492582E-36  0.1211351812E-29  0.0000000000E+00  0.0000000000E+00  0.0000000000E+00
31 -0.4986217823E-38 -0.2737686392E-37 -0.4656388937E-38 -0.9572379291E-38 -0.1970854496E-37  0.1211352296E-29 -0.3024425135E-34  0.7416546265E-32 -0.2288085773E-29 -0.4485095113E-35  0.0000000000E+00 -0.3041118119E-34  0.7100451170E-36  0.1211352297E-29  0.1211352296E-29 -0.3024425135E-34  0.0000000000E+00  0.0000000000E+00  0.7416546265E-32 -0.2288085773E-29 -0.4485095113E-35  0.0000000000E+00  0.0000000000E+00  0.0000000000E+00 -0.3041118119E-34  0.7100451170E-36  0.1211352297E-29  0.0000000000E+00  0.0000000000E+00  0.0000000000E+00
32 -0.3506149661E-38 -0.1888146267E-37 -0.3332780346E-38 -0.6750289641E-38 -0.1348028595E-37  0.1211352651E-29 -0.3024424042E-34  0.7416519238E-32 -0.2288088631E-29 -0.4485089446E-35  0.0000000000E+00 -0.3041112593E-34  0.7100442508E-36  0.1211352652E-29  0.1211352651E-29 -0.3024424042E-34  0.0000000000E+00  0.0000000000E+00  0.7416519238E-32 -0.2288088631E-29 -0.4485089446E-35  0.0000000000E+00  0.0000000000E+00  0.0000000000E+00 -0.3041112593E-34  0.7100442508E-36  0.1211352652E-29  0.0000000000E+00  0.0000000000E+00  0.0000000000E+00
33 -0.2449340002E-38 -0.1299088762E-37 -0.2396518903E-38 -0.4747055994E-38 -0.9195779697E-38  0.1211352906E-29 -0.3024423410E-34  0.7416541572E-32 -0.2288090624E-29 -0.4485080150E-35  0.0000000000E+00 -0.3041108774E-34  0.7100452387E-36  0.1211352907E-29  0.1211352906E-29 -0.3024423410E-34  0.0000000000E+00  0.0000000000E+00  0.7416541572E-32 -0.2288090624E-29 -0.4485080150E-35  0.0000000000E+00  0.0000000000E+00  0.0000000000E+00 -0.3041108774E-34  0.7100452387E-36  0.1211352907E-29  0.0000000000E+00  0.0000000000E+00  0.0000000000E+00
34 -0.1699896951E-38 -0.8920984340E-38 -0.1729208006E-38 -0.3335944927E-38 -0.6259300991E-38  0.1211353084E-29 -0.3024423058E-34  0.7416586003E-32 -0.2288091988E-29 -0.4485069833E-35  0.0000000000E+00 -0.3041106155E-34  0.7100470798E-36  0.1211353085E-29  0.1211353084E-29 -0.3024423058E-34  0.0000000000E+00  0.0000000000E+00  0.7416586003E-32 -0.2288091988E-29 -0.4485069833E-35  0.0000000000E+00  0.0000000000E+00  0.0000000000E+00 -0.3041106155E-34  0.7100470798E-36  0.1211353085E-29  0.0000000000E+00  0.0000000000E+00  0.0000000000E+00
35 -0.1173126608E-38 -0.6117421540E-38 -0.1249371514E-38 -0.2345094241E-38 -0.4254158391E-38  0.1211353204E-29 -0.3024422857E-34  0.7416635560E-32 -0.2288092902E-29 -0.4485060109E-35  0.0000000000E+00 -0.3041104374E-34  0.7100491290E-36  0.1211353205E-29  0.1211353204E-29 -0.3024422857E-34  0.0000000000E+00  0.0000000000E+00  0.7416635560E-32 -0.2288092902E-29 -0.4485060109E-35  0.0000000000E+00  0.0000000000E+00  0.0000000000E+00 -0.3041104374E-34  0.7100491290E-36  0.1211353205E-29  0.0000000000E+00  0.0000000000E+00  0.0000000000E+00
36 -0.8062568197E-39 -0.4190831931E-38 -0.9012656977E-39 -0.1649250535E-38 -0.2889432998E-38  0.1211353283E-29 -0.3024422732E-34  0.7416680995E-32 -0.2288093505E-29 -0.4485051797E-35  0.0000000000E+00 -0.3041103171E-34  0.7100510232E-36  0.1211353284E-29  0.1211353283E-29 -0.3024422732E-34  0.0000000000E+00  0.0000000000E+00  0.7416680995E-32 -0.2288093505E-29 -0.4485051797E-35  0.0000000000E+00  0.0000000000E+00  0.0000000000E+00 -0.3041103171E-34  0.7100510232E-36  0.1211353284E-29  0.0000000000E+00  0.0000000000E+00  0.0000000000E+00
37 -0.5527678154E-39 -0.2869256674E-38 -0.6470432422E-39 -0.1160127174E-38 -0.1962696564E-38  0.1211353334E-29 -0.3024422646E-34  0.7416718382E-32 -0.2288093898E-29 -0.4485045157E-35  0.0000000000E+00 -0.3041102364E-34  0.7100526011E-36  0.1211353335E-29  0.1211353334E-29 -0.3024422646E-34  0.0000000000E+00  0.0000000000E+00  0.7416718382E-32 -0.2288093898E-29 -0.4485045157E-35  0.0000000000E+00  0.0000000000E+00  0.0000000000E+00 -0.3041102364E-34  0.7100526011E-36  0.1211353335E-29  0.0000000000E+00  0.0000000000E+00  0.0000000000E+00
38 -0.3786120315E-39 -0.1963743668E-38 -0.4610087798E-39 -0.8163130709E-39 -0.1334045693E-38  0.1211353366E-29 -0.3024422584E-34  0.7416747055E-32 -0.2288094152E-29 -0.4485040107E-35  0.0000000000E+00 -0.3041101823E-34  0.7100538292E-36  0.1211353367E-29  0.1211353366E-29 -0.3024422584E-34  0.0000000000E+00  0.0000000000E+00  0.7416747055E-32 -0.2288094152E-29 -0.4485040107E-35  0.0000000000E+00  0.0000000000E+00  0.0000000000E+00 -0.3041101823E-34  0.7100538292E-36  0.1211353367E-29  0.0000000000E+00  0.0000000000E+00  0.0000000000E+00
39 -0.2592854297E-39 -0.1343679144E-38 -0.3253999705E-39 -0.5749164656E-39 -0.9075537975E-39  0.1211353387E-29 -0.3024422539E-34  0.7416768034E-32 -0.2288094317E-29 -0.4485036398E-35  0.0000000000E+00 -0.3041101462E-34  0.7100547424E-36  0.1211353387E-29  0.1211353387E-29 -0.3024422539E-34  0.0000000000E+00  0.0000000000E+00  0.7416768034E-32 -0.2288094317E-29 -0.4485036398E-35  0.0000000000E+00  0.0000000000E+00  0.0000000000E+00 -0.3041101462E-34  0.7100547424E-36  0.1211353387E-29  0.0000000000E+00  0.0000000000E+00  0.0000000000E+00
40 -0.1775528219E-39 -0.9192449072E-39 -0.2274909509E-39 -0.4055928528E-39 -0.6180328083E-39  0.1211353399E-29 -0.3024422506E-34  0.7416782956E-32 -0.2288094422E-29 -0.4485033732E-35  0.0000000000E+00 -0.3041101220E-34  0.7100554026E-36  0.1211353400E-29  0.1211353399E-29 -0.3024422506E-34  0.0000000000E+00  0.0000000000E+00  0.7416782956E-32 -0.2288094422E-29 -0.4485033732E-35  0.0000000000E+00  0.0000000000E+00  0.0000000000E+00 -0.3041101220E-34  0.7100554026E-36  0.1211353400E-29  0.0000000000E+00  0.0000000000E+00  0.0000000000E+00
41 -0.1215034463E-39 -0.6288444796E-39 -0.1577425153E-39 -0.2867896670E-39 -0.4213541938E-39  0.1211353407E-29 -0.3024422483E-34  0.7416793452E-32 -0.2288094490E-29 -0.4485031835E-35  0.0000000000E+00 -0.3041101058E-34  0.7100558740E-36  0.1211353408E-29  0.1211353407E-29 -0.3024422483E-34  0.0000000000E+00  0.0000000000E+00  0.7416793452E-32 -0.2288094490E-29 -0.4485031835E-35  0.0000000000E+00  0.0000000000E+00  0.0000000000E+00 -0.3041101058E-34  0.7100558740E-36  0.1211353408E-29  0.0000000000E+00  0.0000000000E+00  0.0000000000E+00
42 -0.8301539449E-40 -0.4302760559E-39 -0.1087663776E-39 -0.2032550360E-39 -0.2876546943E-39  0.1211353411E-29 -0.3024422466E-34  0.7416800866E-32 -0.2288094534E-29 -0.4485030485E-35  0.0000000000E+00 -0.3041100948E-34  0.7100562106E-36  0.1211353412E-29  0.1211353411E-29 -0.3024422466E-34  0.0000000000E+00  0.0000000000E+00  0.7416800866E-32 -0.2288094534E-29 -0.4485030485E-35  0.0000000000E+00  0.0000000000E+00  0.0000000000E+00 -0.3041100948E-34  0.7100562106E-36  0.1211353412E-29  0.0000000000E+00  0.0000000000E+00  0.0000000000E+00
43 -0.5658755071E-40 -0.2946135298E-39 -0.7481392758E-40 -0.1443120587E-39 -0.1967511771E-39  0.1211353414E-29 -0.3024422452E-34  0.7416806180E-32 -0.2288094563E-29 -0.4485029516E-35  0.0000000000E+00 -0.3041100874E-34  0.7100564533E-36  0.1211353415E-29  0.1211353414E-29 -0.3024422452E-34  0.0000000000E+00  0.0000000000E+00  0.7416806180E-32 -0.2288094563E-29 -0.4485029516E-35  0.0000000000E+00  0.0000000000E+00  0.0000000000E+00 -0.3041100874E-34  0.7100564533E-36  0.1211353415E-29  0.0000000000E+00  0.0000000000E+00  0.0000000000E+00
44 -0.3847256526E-40 -0.2019871586E-39 -0.5148869783E-40 -0.1025438981E-39 -0.1348940377E-39  0.1211353416E-29 -0.3024422442E-34  0.7416810060E-32 -0.2288094581E-29 -0.4485028814E-35  0.0000000000E+00 -0.3041100824E-34  0.7100566303E-36  0.1211353416E-29  0.1211353416E-29 -0.3024422442E-34  0.0000000000E+00  0.0000000000E+00  0.7416810060E-32 -0.2288094581E-29 -0.4485028814E-35  0.0000000000E+00  0.0000000000E+00  0.0000000000E+00 -0.3041100824E-34  0.7100566303E-36  0.1211353416E-29  0.0000000000E+00  0.0000000000E+00  0.0000000000E+00
45 -0.2609587251E-40 -0.1387438961E-39 -0.3554117883E-40 -0.7281515773E-40 -0.9273489313E-40  0.1211353417E-29 -0.3024422433E-34  0.7416812936E-32 -0.2288094593E-29 -0.4485028301E-35  0.0000000000E+00 -0.3041100790E-34  0.7100567610E-36  0.1211353417E-29  0.1211353417E-29 -0.3024422433E-34  0.0000000000E+00  0.0000000000E+00  0.7416812936E-32 -0.2288094593E-29 -0.4485028301E-35  0.0000000000E+00  0.0000000000E+00  0.0000000000E+00 -0.3041100790E-34  0.7100567610E-36  0.1211353417E-29  0.0000000000E+00  0.0000000000E+00  0.0000000000E+00
46 -0.1767830205E-40 -0.9553801255E-40 -0.2464752395E-40 -0.5159580988E-40 -0.6396560256E-40  0.1211353417E-29 -0.3024422426E-34  0.7416815086E-32 -0.2288094601E-29 -0.4485027924E-35  0.0000000000E+00 -0.3041100767E-34  0.7100568579E-36  0.1211353418E-29  0.1211353417E-29 -0.3024422426E-34  0.0000000000E+00  0.0000000000E+00  0.7416815086E-32 -0.2288094601E-29 -0.4485027924E-35  0.0000000000E+00  0.0000000000E+00  0.0000000000E+00 -0.3041100767E-34  0.7100568579E-36  0.1211353418E-29  0.0000000000E+00  0.0000000000E+00  0.0000000000E+00
47 -0.1197055127E-40 -0.6596265143E-40 -0.1719676583E-40 -0.3643714223E-40 -0.4426564213E-40  0.1211353418E-29 -0.3024422421E-34  0.7416816693E-32 -0.2288094606E-29 -0.4485027647E-35  0.0000000000E+00 -0.3041100752E-34  0.7100569297E-36  0.1211353418E-29  0.1211353418E-29 -0.3024422421E-34  0.0000000000E+00  0.0000000000E+00  0.7416816693E-32 -0.2288094606E-29 -0.4485027647E-35  0.0000000000E+00  0.0000000000E+00  0.0000000000E+00 -0.3041100752E-34  0.7100569297E-36  0.1211353418E-29  0.0000000000E+00  0.0000000000E+00  0.0000000000E+00
48 -0.8114066008E-41 -0.4566448548E-40 -0.1207988448E-40 -0.2563031136E-40 -0.3073261419E-40  0.1211353418E-29 -0.3024422418E-34  0.7416817887E-32 -0.2288094610E-29 -0.4485027445E-35  0.0000000000E+00 -0.3041100741E-34  0.7100569827E-36  0.1211353419E-29  0.1211353418E-29 -0.3024422418E-34  0.0000000000E+00  0.0000000000E+00  0.7416817887E-32 -0.2288094610E-29 -0.4485027445E-35  0.0000000000E+00  0.0000000000E+00  0.0000000000E+00 -0.3041100741E-34  0.7100569827E-36  0.1211353419E-29  0.0000000000E+00  0.0000000000E+00  0.0000000000E+00
49 -0.5521503100E-41 -0.3169591266E-40 -0.8551661801E-41 -0.1795654046E-40 -0.2143736817E-40  0.1211353418E-29 -0.3024422415E-34  0.7416818766E-32 -0.2288094612E-29 -0.4485027298E-35  0.0000000000E+00 -0.3041100734E-34  0.7100570215E-36  0.1211353419E-29  0.1211353418E-29 -0.3024422415E-34  0.0000000000E+00  0.0000000000E+00  0.7416818766E-32 -0.2288094612E-29 -0.4485027298E-35  0.0000000000E+00  0.0000000000E+00  0.0000000000E+00 -0.3041100734E-34  0.7100570215E-36  0.1211353419E-29  0.0000000000E+00  0.0000000000E+00  0.0000000000E+00
50 -0.3773236944E-41 -0.2203870829E-40 -0.6102473471E-41 -0.1253809918E-40 -0.1500954512E-40  0.1211353418E-29 -0.3024422414E-34  0.7416819408E-32 -0.2288094614E-29 -0.4485027192E-35  0.0000000000E+00 -0.3041100729E-34  0.7100570496E-36  0.1211353419E-29  0.1211353418E-29 -0.3024422414E-34  0.0000000000E+00  0.0000000000E+00  0.7416819408E-32 -0.2288094614E-29 -0.4485027192E-35  0.0000000000E+00  0.0000000000E+00  0.0000000000E+00 -0.3041100729E-34  0.7100570496E-36  0.1211353419E-29  0.0000000000E+00  0.0000000000E+00  0.0000000000E+00
51 -0.2575856374E-41 -0.1534763743E-40 -0.4386092700E-41 -0.8739180308E-41 -0.1054179086E-40  0.1211353418E-29 -0.3024422413E-34  0.7416819873E-32 -0.2288094615E-29 -0.4485027116E-35  0.0000000000E+00 -0.3041100726E-34  0.7100570699E-36  0.1211353419E-29  0.1211353418E-29 -0.3024422413E-34  0.0000000000E+00  0.0000000000E+00  0.7416819873E-32 -0.2288094615E-29 -0.4485027116E-35  0.0000000000E+00  0.0000000000E+00  0.0000000000E+00 -0.3041100726E-34  0.7100570699E-36  0.1211353419E-29  0.0000000000E+00  0.0000000000E+00  0.0000000000E+00
52 -0.1772497223E-41 -0.1069658881E-40 -0.3168838001E-41 -0.6080059422E-41 -0.7434000538E-41  0.1211353418E-29 -0.3024422413E-34  0.7416820208E-32 -0.2288094616E-29 -0.4485027062E-35  0.0000000000E+00 -0.3041100723E-34  0.7100570846E-36  0.1211353419E-29  0.1211353418E-29 -0.3024422413E-34  0.0000000000E+00  0.0000000000E+00  0.7416820208E-32 -0.2288094616E-29 -0.4485027062E-35  0.0000000000E+00  0.0000000000E+00  0.0000000000E+00 -0.3041100723E-34  0.7100570846E-36  0.1211353419E-29  0.0000000000E+00  0.0000000000E+00  0.0000000000E+00
53 -0.1215958089E-41 -0.7456806264E-41 -0.2292715494E-41 -0.4232644642E-41 -0.5260900417E-41  0.1211353418E-29 -0.3024422412E-34  0.7416820448E-32 -0.2288094617E-29 -0.4485027023E-35  0.0000000000E+00 -0.3041100722E-34  0.7100570951E-36  0.1211353419E-29  0.1211353418E-29 -0.3024422412E-34  0.0000000000E+00  0.0000000000E+00  0.7416820448E-32 -0.2288094617E-29 -0.4485027023E-35  0.0000000000E+00  0.0000000000E+00  0.0000000000E+00 -0.3041100722E-34  0.7100570951E-36  0.1211353419E-29  0.0000000000E+00  0.0000000000E+00  0.0000000000E+00
54 -0.8361272070E-42 -0.5188643714E-41 -0.1654458134E-41 -0.2943108060E-41 -0.3724475747E-41  0.1211353418E-29 -0.3024422412E-34  0.7416820620E-32 -0.2288094617E-29 -0.4485026995E-35  0.0000000000E+00 -0.3041100721E-34  0.7100571025E-36  0.1211353419E-29  0.1211353418E-29 -0.3024422412E-34  0.0000000000E+00  0.0000000000E+00  0.7416820620E-32 -0.2288094617E-29 -0.4485026995E-35  0.0000000000E+00  0.0000000000E+00  0.0000000000E+00 -0.3041100721E-34  0.7100571025E-36  0.1211353419E-29  0.0000000000E+00  0.0000000000E+00  0.0000000000E+00