TITLE="fun3d_case_title"
VARIABLES="Iteration" "R_1" "R_2" "R_3" "R_4" "R_5" "C_L" "C_D" "C_M_x" "C_M_y" "C_M_z" "Wall Time" "C_x" "C_y" "C_z" "C_Lp" "C_Dp" "C_Lv" "C_Dv" "C_M_xp" "C_M_yp" "C_M_zp" "C_M_xv" "C_M_yv" "C_M_zv" "C_xp" "C_yp" "C_zp" "C_xv" "C_yv" "C_zv"
ZONE  I=100 F=POINT
1  0.0000000000E+00  0.0000000000E+00  0.0000000000E+00  0.0000000000E+00  0.0000000000E+00  0.0000000000E+00  0.0000000000E+00  0.0000000000E+00  0.0000000000E+00  0.0000000000E+00  0.0000000000E+00  0.0000000000E+00  0.0000000000E+00  0.0000000000E+00  0.0000000000E+00  0.0000000000E+00  0.0000000000E+00  0.0000000000E+00  0.0000000000E+00  0.0000000000E+00  0.0000000000E+00  0.0000000000E+00  0.0000000000E+00  0.0000000000E+00  0.0000000000E+00  0.0000000000E+00  0.0000000000E+00  0.0000000000E+00  0.0000000000E+00  0.0000000000E+00
2  0.1156190872E-46  0.5780954359E-47 -0.1191012497E-60 -0.3034109464E-61  0.3035001039E-46 -0.8020969611E-44  0.3983322582E-50 -0.2308310577E-44  0.1171385997E-43 -0.4201728357E-48  0.0000000000E+00  0.3983322582E-50  0.7232699185E-49 -0.8020969611E-44 -0.8020969611E-44  0.3983322582E-50  0.0000000000E+00  0.0000000000E+00 -0.2308310577E-44  0.1171385997E-43 -0.4201728357E-48  0.0000000000E+00  0.0000000000E+00  0.0000000000E+00  0.3983322582E-50  0.7232699185E-49 -0.8020969611E-44  0.0000000000E+00  0.0000000000E+00  0.0000000000E+00
3 -0.3104875098E-42 -0.1558223559E-42 -0.1953297418E-47  0.2430339814E-47 -0.8152154130E-42  0.3039934728E-39 -0.9565833444E-44  0.7846583079E-40 -0.6139012891E-39 -0.3194828516E-44  0.0000000000E+00 -0.9565833444E-44  0.7466440141E-44  0.3039934728E-39  0.3039934728E-39 -0.9565833444E-44  0.0000000000E+00  0.0000000000E+00  0.7846583079E-40 -0.6139012891E-39 -0.3194828516E-44  0.0000000000E+00  0.0000000000E+00  0.0000000000E+00 -0.9565833444E-44  0.7466440141E-44  0.3039934728E-39  0.0000000000E+00  0.0000000000E+00  0.0000000000E+00
4 -0.8197103787E-41 -0.1189543504E-40  0.4556092831E-44 -0.6426893884E-43 -0.3352626801E-40  0.3015321432E-37 -0.7258546551E-42  0.7748244676E-38 -0.6082459997E-37 -0.1029352501E-41  0.0000000000E+00 -0.7258546551E-42  0.3720624195E-42  0.3015321432E-37  0.3015321432E-37 -0.7258546551E-42  0.0000000000E+00  0.0000000000E+00  0.7748244676E-38 -0.6082459997E-37 -0.1029352501E-41  0.0000000000E+00  0.0000000000E+00  0.0000000000E+00 -0.7258546551E-42  0.3720624195E-42  0.3015321432E-37  0.0000000000E+00  0.0000000000E+00  0.0000000000E+00
5 -0.1056671774E-41 -0.1139547714E-41  0.1244011558E-42 -0.6076505787E-41 -0.3599344119E-42  0.2043778052E-37 -0.5535923117E-42  0.2274355502E-38 -0.3469174233E-37  0.7537026968E-42  0.0000000000E+00 -0.5535923117E-42  0.2183854427E-42  0.2043778052E-37  0.2043778052E-37 -0.5535923117E-42  0.0000000000E+00  0.0000000000E+00  0.2274355502E-38 -0.3469174233E-37  0.7537026968E-42  0.0000000000E+00  0.0000000000E+00  0.0000000000E+00 -0.5535923117E-42  0.2183854427E-42  0.2043778052E-37  0.0000000000E+00  0.0000000000E+00  0.0000000000E+00
6 -0.1575287024E-41  0.1105180785E-41  0.2874321314E-44 -0.2046047933E-41  0.1051472343E-41  0.1566528835E-37 -0.4201518805E-42  0.7286879956E-39 -0.2629889101E-37  0.6859993119E-42  0.0000000000E+00 -0.4201518805E-42  0.1306817685E-42  0.1566528835E-37  0.1566528835E-37 -0.4201518805E-42  0.0000000000E+00  0.0000000000E+00  0.7286879956E-39 -0.2629889101E-37  0.6859993119E-42  0.0000000000E+00  0.0000000000E+00  0.0000000000E+00 -0.4201518805E-42  0.1306817685E-42  0.1566528835E-37  0.0000000000E+00  0.0000000000E+00  0.0000000000E+00
7  0.3341965981E-42 -0.5216996285E-42 -0.1623791785E-42 -0.1717361197E-41  0.2382839673E-41  0.1498755961E-37 -0.3777361932E-42  0.1265034425E-38 -0.2715893296E-37  0.3922399805E-42  0.0000000000E+00 -0.3777361932E-42  0.1186909439E-42  0.1498755961E-37  0.1498755961E-37 -0.3777361932E-42  0.0000000000E+00  0.0000000000E+00  0.1265034425E-38 -0.2715893296E-37  0.3922399805E-42  0.0000000000E+00  0.0000000000E+00  0.0000000000E+00 -0.3777361932E-42  0.1186909439E-42  0.1498755961E-37  0.0000000000E+00  0.0000000000E+00  0.0000000000E+00
8 -0.3062964361E-42 -0.9605674697E-42 -0.1882511465E-42 -0.1344607817E-41 -0.9719280891E-42  0.1519905350E-37 -0.3807720680E-42  0.1676763930E-38 -0.2844246729E-37  0.2251393245E-42  0.0000000000E+00 -0.3807720680E-42  0.1264266957E-42  0.1519905350E-37  0.1519905350E-37 -0.3807720680E-42  0.0000000000E+00  0.0000000000E+00  0.1676763930E-38 -0.2844246729E-37  0.2251393245E-42  0.0000000000E+00  0.0000000000E+00  0.0000000000E+00 -0.3807720680E-42  0.1264266957E-42  0.1519905350E-37  0.0000000000E+00  0.0000000000E+00  0.0000000000E+00
9 -0.4504229419E-42 -0.7747064964E-42 -0.8392820024E-43 -0.6825950162E-42 -0.1217755927E-41  0.1526175826E-37 -0.3886214916E-42  0.1726399637E-38 -0.2858808479E-37  0.1508712240E-42  0.0000000000E+00 -0.3886214916E-42  0.1270265966E-42  0.1526175826E-37  0.1526175826E-37 -0.3886214916E-42  0.0000000000E+00  0.0000000000E+00  0.1726399637E-38 -0.2858808479E-37  0.1508712240E-42  0.0000000000E+00  0.0000000000E+00  0.0000000000E+00 -0.3886214916E-42  0.1270265966E-42  0.1526175826E-37  0.0000000000E+00  0.0000000000E+00  0.0000000000E+00
10 -0.1923737714E-42 -0.5307304014E-42 -0.7118434416E-43 -0.3510792928E-42 -0.5174636532E-42  0.1520019731E-37 -0.3907857156E-42  0.1686432456E-38 -0.2833722737E-37  0.1287689042E-42  0.0000000000E+00 -0.3907857156E-42  0.1248106564E-42  0.1520019731E-37  0.1520019731E-37 -0.3907857156E-42  0.0000000000E+00  0.0000000000E+00  0.1686432456E-38 -0.2833722737E-37  0.1287689042E-42  0.0000000000E+00  0.0000000000E+00  0.0000000000E+00 -0.3907857156E-42  0.1248106564E-42  0.1520019731E-37  0.0000000000E+00  0.0000000000E+00  0.0000000000E+00
11 -0.4274358863E-43 -0.3713601074E-42 -0.4016052030E-43 -0.2482627169E-42 -0.1993428286E-42  0.1510852349E-37 -0.3890673793E-42  0.1658450131E-38 -0.2809130421E-37  0.1246319626E-42  0.0000000000E+00 -0.3890673793E-42  0.1230346948E-42  0.1510852349E-37  0.1510852349E-37 -0.3890673793E-42  0.0000000000E+00  0.0000000000E+00  0.1658450131E-38 -0.2809130421E-37  0.1246319626E-42  0.0000000000E+00  0.0000000000E+00  0.0000000000E+00 -0.3890673793E-42  0.1230346948E-42  0.1510852349E-37  0.0000000000E+00  0.0000000000E+00  0.0000000000E+00
12 -0.1781364761E-43 -0.2630467765E-42 -0.2569197638E-43 -0.1808816150E-42 -0.1183122818E-42  0.1503948529E-37 -0.3868565910E-42  0.1647827575E-38 -0.2795199552E-37  0.1232387523E-42  0.0000000000E+00 -0.3868565910E-42  0.1220284490E-42  0.1503948529E-37  0.1503948529E-37 -0.3868565910E-42  0.0000000000E+00  0.0000000000E+00  0.1647827575E-38 -0.2795199552E-37  0.1232387523E-42  0.0000000000E+00  0.0000000000E+00  0.0000000000E+00 -0.3868565910E-42  0.1220284490E-42  0.1503948529E-37  0.0000000000E+00  0.0000000000E+00  0.0000000000E+00
13 -0.1591585713E-43 -0.1851457205E-42 -0.2006679087E-43 -0.1286156276E-42 -0.8193976645E-43  0.1499649595E-37 -0.3853689907E-42  0.1643439617E-38 -0.2788623284E-37  0.1207235149E-42  0.0000000000E+00 -0.3853689907E-42  0.1214019535E-42  0.1499649595E-37  0.1499649595E-37 -0.3853689907E-42  0.0000000000E+00  0.0000000000E+00  0.1643439617E-38 -0.2788623284E-37  0.1207235149E-42  0.0000000000E+00  0.0000000000E+00  0.0000000000E+00 -0.3853689907E-42  0.1214019535E-42  0.1499649595E-37  0.0000000000E+00  0.0000000000E+00  0.0000000000E+00
14 -0.1297950610E-43 -0.1300812989E-42 -0.1537311942E-43 -0.9238162561E-43 -0.5724896585E-43  0.1496998341E-37 -0.3845167593E-42  0.1640446419E-38 -0.2785425241E-37  0.1176081567E-42  0.0000000000E+00 -0.3845167593E-42  0.1209573707E-42  0.1496998341E-37  0.1496998341E-37 -0.3845167593E-42  0.0000000000E+00  0.0000000000E+00  0.1640446419E-38 -0.2785425241E-37  0.1176081567E-42  0.0000000000E+00  0.0000000000E+00  0.0000000000E+00 -0.3845167593E-42  0.1209573707E-42  0.1496998341E-37  0.0000000000E+00  0.0000000000E+00  0.0000000000E+00
15 -0.9332601956E-44 -0.9165298818E-43 -0.1166134621E-43 -0.6575314530E-43 -0.3855846700E-43  0.1495147846E-37 -0.3839571311E-42  0.1637795864E-38 -0.2783384369E-37  0.1146249135E-42  0.0000000000E+00 -0.3839571311E-42  0.1206238997E-42  0.1495147846E-37  0.1495147846E-37 -0.3839571311E-42  0.0000000000E+00  0.0000000000E+00  0.1637795864E-38 -0.2783384369E-37  0.1146249135E-42  0.0000000000E+00  0.0000000000E+00  0.0000000000E+00 -0.3839571311E-42  0.1206238997E-42  0.1495147846E-37  0.0000000000E+00  0.0000000000E+00  0.0000000000E+00
16 -0.7002517222E-44 -0.6454570184E-43 -0.9384923824E-44 -0.4537978120E-43 -0.2576440439E-43  0.1493743653E-37 -0.3835224665E-42  0.1635654270E-38 -0.2781798396E-37  0.1121846531E-42  0.0000000000E+00 -0.3835224665E-42  0.1203806233E-42  0.1493743653E-37  0.1493743653E-37 -0.3835224665E-42  0.0000000000E+00  0.0000000000E+00  0.1635654270E-38 -0.2781798396E-37  0.1121846531E-42  0.0000000000E+00  0.0000000000E+00  0.0000000000E+00 -0.3835224665E-42  0.1203806233E-42  0.1493743653E-37  0.0000000000E+00  0.0000000000E+00  0.0000000000E+00
17 -0.5905059654E-44 -0.4538242249E-43 -0.7736544061E-44 -0.3111827189E-43 -0.1940969027E-43  0.1492763093E-37 -0.3832045023E-42  0.1634370484E-38 -0.2780686159E-37  0.1103755046E-42  0.0000000000E+00 -0.3832045023E-42  0.1202205231E-42  0.1492763093E-37  0.1492763093E-37 -0.3832045023E-42  0.0000000000E+00  0.0000000000E+00  0.1634370484E-38 -0.2780686159E-37  0.1103755046E-42  0.0000000000E+00  0.0000000000E+00  0.0000000000E+00 -0.3832045023E-42  0.1202205231E-42  0.1492763093E-37  0.0000000000E+00  0.0000000000E+00  0.0000000000E+00
18 -0.4749727864E-44 -0.3136622313E-43 -0.6210784924E-44 -0.2173525004E-43 -0.1481373174E-43  0.1492104839E-37 -0.3829960665E-42  0.1633642588E-38 -0.2779883255E-37  0.1090971254E-42  0.0000000000E+00 -0.3829960665E-42  0.1201166724E-42  0.1492104839E-37  0.1492104839E-37 -0.3829960665E-42  0.0000000000E+00  0.0000000000E+00  0.1633642588E-38 -0.2779883255E-37  0.1090971254E-42  0.0000000000E+00  0.0000000000E+00  0.0000000000E+00 -0.3829960665E-42  0.1201166724E-42  0.1492104839E-37  0.0000000000E+00  0.0000000000E+00  0.0000000000E+00
19 -0.3495096334E-44 -0.2111177757E-43 -0.4718523778E-44 -0.1565348542E-43 -0.1090585465E-43  0.1491684625E-37 -0.3828776963E-42  0.1633239874E-38 -0.2779305774E-37  0.1082284130E-42  0.0000000000E+00 -0.3828776963E-42  0.1200496153E-42  0.1491684625E-37  0.1491684625E-37 -0.3828776963E-42  0.0000000000E+00  0.0000000000E+00  0.1633239874E-38 -0.2779305774E-37  0.1082284130E-42  0.0000000000E+00  0.0000000000E+00  0.0000000000E+00 -0.3828776963E-42  0.1200496153E-42  0.1491684625E-37  0.0000000000E+00  0.0000000000E+00  0.0000000000E+00
20 -0.2350397950E-44 -0.1365686419E-43 -0.3393906959E-44 -0.1151050904E-43 -0.7274783290E-44  0.1491405892E-37 -0.3828142219E-42  0.1632969286E-38 -0.2778858705E-37  0.1076345891E-42  0.0000000000E+00 -0.3828142219E-42  0.1200028740E-42  0.1491405892E-37  0.1491405892E-37 -0.3828142219E-42  0.0000000000E+00  0.0000000000E+00  0.1632969286E-38 -0.2778858705E-37  0.1076345891E-42  0.0000000000E+00  0.0000000000E+00  0.0000000000E+00 -0.3828142219E-42  0.1200028740E-42  0.1491405892E-37  0.0000000000E+00  0.0000000000E+00  0.0000000000E+00
21 -0.1475288823E-44 -0.8409055983E-44 -0.2324802670E-44 -0.8453228112E-44 -0.4202586727E-44  0.1491202906E-37 -0.3827757373E-42  0.1632750269E-38 -0.2778499882E-37  0.1072165075E-42  0.0000000000E+00 -0.3827757373E-42  0.1199687680E-42  0.1491202906E-37  0.1491202906E-37 -0.3827757373E-42  0.0000000000E+00  0.0000000000E+00  0.1632750269E-38 -0.2778499882E-37  0.1072165075E-42  0.0000000000E+00  0.0000000000E+00  0.0000000000E+00 -0.3827757373E-42  0.1199687680E-42  0.1491202906E-37  0.0000000000E+00  0.0000000000E+00  0.0000000000E+00
22 -0.8616959107E-45 -0.4910413240E-44 -0.1518160659E-44 -0.6090093097E-44 -0.1938023751E-44  0.1491043563E-37 -0.3827469470E-42  0.1632571354E-38 -0.2778209678E-37  0.1069068349E-42  0.0000000000E+00 -0.3827469470E-42  0.1199421016E-42  0.1491043563E-37  0.1491043563E-37 -0.3827469470E-42  0.0000000000E+00  0.0000000000E+00  0.1632571354E-38 -0.2778209678E-37  0.1069068349E-42  0.0000000000E+00  0.0000000000E+00  0.0000000000E+00 -0.3827469470E-42  0.1199421016E-42  0.1491043563E-37  0.0000000000E+00  0.0000000000E+00  0.0000000000E+00
23 -0.4942980382E-45 -0.2695726634E-44 -0.9470995829E-45 -0.4278173759E-44 -0.4966644555E-45  0.1490915124E-37 -0.3827215970E-42  0.1632496789E-38 -0.2777985272E-37  0.1066853756E-42  0.0000000000E+00 -0.3827215970E-42  0.1199244969E-42  0.1490915124E-37  0.1490915124E-37 -0.3827215970E-42  0.0000000000E+00  0.0000000000E+00  0.1632496789E-38 -0.2777985272E-37  0.1066853756E-42  0.0000000000E+00  0.0000000000E+00  0.0000000000E+00 -0.3827215970E-42  0.1199244969E-42  0.1490915124E-37  0.0000000000E+00  0.0000000000E+00  0.0000000000E+00
24 -0.3103225436E-45 -0.1377819065E-44 -0.5599518829E-45 -0.2959369850E-44  0.1586861277E-45  0.1490815195E-37 -0.3826988708E-42  0.1632423603E-38 -0.2777821793E-37  0.1065157417E-42  0.0000000000E+00 -0.3826988708E-42  0.1199105919E-42  0.1490815195E-37  0.1490815195E-37 -0.3826988708E-42  0.0000000000E+00  0.0000000000E+00  0.1632423603E-38 -0.2777821793E-37  0.1065157417E-42  0.0000000000E+00  0.0000000000E+00  0.0000000000E+00 -0.3826988708E-42  0.1199105919E-42  0.1490815195E-37  0.0000000000E+00  0.0000000000E+00  0.0000000000E+00
25 -0.1649069911E-45 -0.5792961899E-45 -0.3157786368E-45 -0.2018835482E-44  0.5676363900E-45  0.1490736099E-37 -0.3826822448E-42  0.1632428398E-38 -0.2777687308E-37  0.1063969109E-42  0.0000000000E+00 -0.3826822448E-42  0.1199029897E-42  0.1490736099E-37  0.1490736099E-37 -0.3826822448E-42  0.0000000000E+00  0.0000000000E+00  0.1632428398E-38 -0.2777687308E-37  0.1063969109E-42  0.0000000000E+00  0.0000000000E+00  0.0000000000E+00 -0.3826822448E-42  0.1199029897E-42  0.1490736099E-37  0.0000000000E+00  0.0000000000E+00  0.0000000000E+00
26 -0.7954903574E-46 -0.3323153346E-46 -0.1648570341E-45 -0.1365700143E-44  0.9738277369E-45  0.1490652256E-37 -0.3826634220E-42  0.1632388790E-38 -0.2777535992E-37  0.1062773087E-42  0.0000000000E+00 -0.3826634220E-42  0.1198952985E-42  0.1490652256E-37  0.1490652256E-37 -0.3826634220E-42  0.0000000000E+00  0.0000000000E+00  0.1632388790E-38 -0.2777535992E-37  0.1062773087E-42  0.0000000000E+00  0.0000000000E+00  0.0000000000E+00 -0.3826634220E-42  0.1198952985E-42  0.1490652256E-37  0.0000000000E+00  0.0000000000E+00  0.0000000000E+00
27 -0.1149275646E-45 -0.1339035955E-46 -0.7305968863E-46 -0.9351751681E-45  0.1879743713E-45  0.1490638589E-37 -0.3826604922E-42  0.1632501375E-38 -0.2777526482E-37  0.1062637153E-42  0.0000000000E+00 -0.3826604922E-42  0.1198951500E-42  0.1490638589E-37  0.1490638589E-37 -0.3826604922E-42  0.0000000000E+00  0.0000000000E+00  0.1632501375E-38 -0.2777526482E-37  0.1062637153E-42  0.0000000000E+00  0.0000000000E+00  0.0000000000E+00 -0.3826604922E-42  0.1198951500E-42  0.1490638589E-37  0.0000000000E+00  0.0000000000E+00  0.0000000000E+00
28 -0.5919065802E-46  0.1761457188E-45 -0.3351338416E-46 -0.6080946563E-45  0.3230245849E-45  0.1490618023E-37 -0.3826575739E-42  0.1632521010E-38 -0.2777484383E-37  0.1062424580E-42  0.0000000000E+00 -0.3826575739E-42  0.1198930044E-42  0.1490618023E-37  0.1490618023E-37 -0.3826575739E-42  0.0000000000E+00  0.0000000000E+00  0.1632521010E-38 -0.2777484383E-37  0.1062424580E-42  0.0000000000E+00  0.0000000000E+00  0.0000000000E+00 -0.3826575739E-42  0.1198930044E-42  0.1490618023E-37  0.0000000000E+00  0.0000000000E+00  0.0000000000E+00
29 -0.2033531253E-47  0.3593131828E-45 -0.6173094893E-47 -0.4057199176E-45  0.6596346638E-45  0.1490579125E-37 -0.3826512211E-42  0.1632470817E-38 -0.2777396698E-37  0.1061943750E-42  0.0000000000E+00 -0.3826512211E-42  0.1198901885E-42  0.1490579125E-37  0.1490579125E-37 -0.3826512211E-42  0.0000000000E+00  0.0000000000E+00  0.1632470817E-38 -0.2777396698E-37  0.1061943750E-42  0.0000000000E+00  0.0000000000E+00  0.0000000000E+00 -0.3826512211E-42  0.1198901885E-42  0.1490579125E-37  0.0000000000E+00  0.0000000000E+00  0.0000000000E+00
30 -0.2700868339E-46  0.2998962829E-45 -0.1662750976E-47 -0.2720588719E-45  0.3609457810E-45  0.1490563859E-37 -0.3826486152E-42  0.1632499033E-38 -0.2777366915E-37  0.1061791732E-42  0.0000000000E+00 -0.3826486152E-42  0.1198896802E-42  0.1490563859E-37  0.1490563859E-37 -0.3826486152E-42  0.0000000000E+00  0.0000000000E+00  0.1632499033E-38 -0.2777366915E-37  0.1061791732E-42  0.0000000000E+00  0.0000000000E+00  0.0000000000E+00 -0.3826486152E-42  0.1198896802E-42  0.1490563859E-37  0.0000000000E+00  0.0000000000E+00  0.0000000000E+00
31 -0.8682413640E-47  0.2993026566E-45  0.1330039855E-47 -0.1798765346E-45  0.3514160001E-45  0.1490548239E-37 -0.3826462959E-42  0.1632500288E-38 -0.2777334194E-37  0.1061615279E-42  0.0000000000E+00 -0.3826462959E-42  0.1198884149E-42  0.1490548239E-37  0.1490548239E-37 -0.3826462959E-42  0.0000000000E+00  0.0000000000E+00  0.1632500288E-38 -0.2777334194E-37  0.1061615279E-42  0.0000000000E+00  0.0000000000E+00  0.0000000000E+00 -0.3826462959E-42  0.1198884149E-42  0.1490548239E-37  0.0000000000E+00  0.0000000000E+00  0.0000000000E+00
32 -0.3805937313E-47  0.2842839898E-45  0.4275945707E-47 -0.1216507692E-45  0.3363826463E-45  0.1490532560E-37 -0.3826437095E-42  0.1632489875E-38 -0.2777301251E-37  0.1061433168E-42  0.0000000000E+00 -0.3826437095E-42  0.1198870235E-42  0.1490532560E-37  0.1490532560E-37 -0.3826437095E-42  0.0000000000E+00  0.0000000000E+00  0.1632489875E-38 -0.2777301251E-37  0.1061433168E-42  0.0000000000E+00  0.0000000000E+00  0.0000000000E+00 -0.3826437095E-42  0.1198870235E-42  0.1490532560E-37  0.0000000000E+00  0.0000000000E+00  0.0000000000E+00
33  0.1120082757E-46  0.1513822895E-45  0.5004972048E-47 -0.8412401692E-46  0.5013143148E-46  0.1490543411E-37 -0.3826475372E-42  0.1632546418E-38 -0.2777322291E-37  0.1061560917E-42  0.0000000000E+00 -0.3826475372E-42  0.1198889744E-42  0.1490543411E-37  0.1490543411E-37 -0.3826475372E-42  0.0000000000E+00  0.0000000000E+00  0.1632546418E-38 -0.2777322291E-37  0.1061560917E-42  0.0000000000E+00  0.0000000000E+00  0.0000000000E+00 -0.3826475372E-42  0.1198889744E-42  0.1490543411E-37  0.0000000000E+00  0.0000000000E+00  0.0000000000E+00
34  0.2082091720E-46  0.1191254363E-45  0.1783614867E-47 -0.4219770863E-46  0.3474422275E-46  0.1490551818E-37 -0.3826510870E-42  0.1632571249E-38 -0.2777333966E-37  0.1061655720E-42  0.0000000000E+00 -0.3826510870E-42  0.1198900318E-42  0.1490551818E-37  0.1490551818E-37 -0.3826510870E-42  0.0000000000E+00  0.0000000000E+00  0.1632571249E-38 -0.2777333966E-37  0.1061655720E-42  0.0000000000E+00  0.0000000000E+00  0.0000000000E+00 -0.3826510870E-42  0.1198900318E-42  0.1490551818E-37  0.0000000000E+00  0.0000000000E+00  0.0000000000E+00
35 -0.6554071043E-47  0.1931475644E-45  0.3212468877E-47 -0.1705755990E-46  0.2363581201E-45  0.1490533552E-37 -0.3826474914E-42  0.1632518906E-38 -0.2777292655E-37  0.1061441401E-42  0.0000000000E+00 -0.3826474914E-42  0.1198876887E-42  0.1490533552E-37  0.1490533552E-37 -0.3826474914E-42  0.0000000000E+00  0.0000000000E+00  0.1632518906E-38 -0.2777292655E-37  0.1061441401E-42  0.0000000000E+00  0.0000000000E+00  0.0000000000E+00 -0.3826474914E-42  0.1198876887E-42  0.1490533552E-37  0.0000000000E+00  0.0000000000E+00  0.0000000000E+00
36 -0.2118079839E-46  0.1609162062E-45  0.4307671602E-47 -0.1761916883E-46  0.1829791106E-45  0.1490518262E-37 -0.3826435858E-42  0.1632498072E-38 -0.2777263868E-37  0.1061262615E-42  0.0000000000E+00 -0.3826435858E-42  0.1198863265E-42  0.1490518262E-37  0.1490518262E-37 -0.3826435858E-42  0.0000000000E+00  0.0000000000E+00  0.1632498072E-38 -0.2777263868E-37  0.1061262615E-42  0.0000000000E+00  0.0000000000E+00  0.0000000000E+00 -0.3826435858E-42  0.1198863265E-42  0.1490518262E-37  0.0000000000E+00  0.0000000000E+00  0.0000000000E+00
37  0.2161623997E-46  0.1805308124E-46  0.2042832885E-47 -0.1583575661E-46 -0.4980320924E-46  0.1490534525E-37 -0.3826476199E-42  0.1632564717E-38 -0.2777299103E-37  0.1061455968E-42  0.0000000000E+00 -0.3826476199E-42  0.1198889164E-42  0.1490534525E-37  0.1490534525E-37 -0.3826476199E-42  0.0000000000E+00  0.0000000000E+00  0.1632564717E-38 -0.2777299103E-37  0.1061455968E-42  0.0000000000E+00  0.0000000000E+00  0.0000000000E+00 -0.3826476199E-42  0.1198889164E-42  0.1490534525E-37  0.0000000000E+00  0.0000000000E+00  0.0000000000E+00
38  0.7940931651E-47  0.5605863037E-46  0.9618060399E-48 -0.9069639434E-48  0.4395227936E-46  0.1490532759E-37 -0.3826480826E-42  0.1632554916E-38 -0.2777291520E-37  0.1061432090E-42  0.0000000000E+00 -0.3826480826E-42  0.1198885817E-42  0.1490532759E-37  0.1490532759E-37 -0.3826480826E-42  0.0000000000E+00  0.0000000000E+00  0.1632554916E-38 -0.2777291520E-37  0.1061432090E-42  0.0000000000E+00  0.0000000000E+00  0.0000000000E+00 -0.3826480826E-42  0.1198885817E-42  0.1490532759E-37  0.0000000000E+00  0.0000000000E+00  0.0000000000E+00
39  0.6477788269E-48  0.4672734302E-46  0.3226925877E-47 -0.1574870733E-47  0.3239074182E-46  0.1490531429E-37 -0.3826480753E-42  0.1632549226E-38 -0.2777287336E-37  0.1061412582E-42  0.0000000000E+00 -0.3826480753E-42  0.1198883663E-42  0.1490531429E-37  0.1490531429E-37 -0.3826480753E-42  0.0000000000E+00  0.0000000000E+00  0.1632549226E-38 -0.2777287336E-37  0.1061412582E-42  0.0000000000E+00  0.0000000000E+00  0.0000000000E+00 -0.3826480753E-42  0.1198883663E-42  0.1490531429E-37  0.0000000000E+00  0.0000000000E+00  0.0000000000E+00
40 -0.5041922524E-49  0.3350310385E-46  0.2160395245E-47 -0.1782551019E-48  0.1985334504E-46  0.1490530671E-37 -0.3826479804E-42  0.1632549685E-38 -0.2777285454E-37  0.1061400040E-42  0.0000000000E+00 -0.3826479804E-42  0.1198883486E-42  0.1490530671E-37  0.1490530671E-37 -0.3826479804E-42  0.0000000000E+00  0.0000000000E+00  0.1632549685E-38 -0.2777285454E-37  0.1061400040E-42  0.0000000000E+00  0.0000000000E+00  0.0000000000E+00 -0.3826479804E-42  0.1198883486E-42  0.1490530671E-37  0.0000000000E+00  0.0000000000E+00  0.0000000000E+00
41 -0.5116453678E-48  0.2350474548E-46  0.1691970887E-47  0.1422751989E-48  0.1098220281E-46  0.1490530083E-37 -0.3826479094E-42  0.1632550652E-38 -0.2777284130E-37  0.1061388242E-42  0.0000000000E+00 -0.3826479094E-42  0.1198883502E-42  0.1490530083E-37  0.1490530083E-37 -0.3826479094E-42  0.0000000000E+00  0.0000000000E+00  0.1632550652E-38 -0.2777284130E-37  0.1061388242E-42  0.0000000000E+00  0.0000000000E+00  0.0000000000E+00 -0.3826479094E-42  0.1198883502E-42  0.1490530083E-37  0.0000000000E+00  0.0000000000E+00  0.0000000000E+00
42 -0.7258815001E-48  0.1715236436E-46  0.1402780242E-47  0.3000182908E-48  0.6828542928E-47  0.1490529505E-37 -0.3826478476E-42  0.1632550754E-38 -0.2777282823E-37  0.1061375544E-42  0.0000000000E+00 -0.3826478476E-42  0.1198883231E-42  0.1490529505E-37  0.1490529505E-37 -0.3826478476E-42  0.0000000000E+00  0.0000000000E+00  0.1632550754E-38 -0.2777282823E-37  0.1061375544E-42  0.0000000000E+00  0.0000000000E+00  0.0000000000E+00 -0.3826478476E-42  0.1198883231E-42  0.1490529505E-37  0.0000000000E+00  0.0000000000E+00  0.0000000000E+00
43  0.5234906015E-47  0.7328946724E-47  0.1240902214E-47  0.2534044882E-48  0.9251965543E-47  0.1490530993E-37 -0.3826483259E-42  0.1632556036E-38 -0.2777285605E-37  0.1061411458E-42  0.0000000000E+00 -0.3826483259E-42  0.1198885612E-42  0.1490530993E-37  0.1490530993E-37 -0.3826483259E-42  0.0000000000E+00  0.0000000000E+00  0.1632556036E-38 -0.2777285605E-37  0.1061411458E-42  0.0000000000E+00  0.0000000000E+00  0.0000000000E+00 -0.3826483259E-42  0.1198885612E-42  0.1490530993E-37  0.0000000000E+00  0.0000000000E+00  0.0000000000E+00
44  0.6010770795E-47  0.4505670555E-47  0.7110193772E-48  0.1156402031E-47  0.1130574962E-46  0.1490532251E-37 -0.3826487756E-42  0.1632558441E-38 -0.2777287562E-37  0.1061444170E-42  0.0000000000E+00 -0.3826487756E-42  0.1198887097E-42  0.1490532251E-37  0.1490532251E-37 -0.3826487756E-42  0.0000000000E+00  0.0000000000E+00  0.1632558441E-38 -0.2777287562E-37  0.1061444170E-42  0.0000000000E+00  0.0000000000E+00  0.0000000000E+00 -0.3826487756E-42  0.1198887097E-42  0.1490532251E-37  0.0000000000E+00  0.0000000000E+00  0.0000000000E+00
45 -0.6251461151E-47  0.9387336251E-47  0.5043028681E-48  0.1343630028E-47 -0.8071653835E-47  0.1490530332E-37 -0.3826483006E-42  0.1632551186E-38 -0.2777283364E-37  0.1061410386E-42  0.0000000000E+00 -0.3826483006E-42  0.1198883973E-42  0.1490530332E-37  0.1490530332E-37 -0.3826483006E-42  0.0000000000E+00  0.0000000000E+00  0.1632551186E-38 -0.2777283364E-37  0.1061410386E-42  0.0000000000E+00  0.0000000000E+00  0.0000000000E+00 -0.3826483006E-42  0.1198883973E-42  0.1490530332E-37  0.0000000000E+00  0.0000000000E+00  0.0000000000E+00
46 -0.1990961620E-48  0.4564171054E-47  0.8207640939E-48 -0.2181596431E-48  0.2221760601E-48  0.1490530352E-37 -0.3826482831E-42  0.1632552845E-38 -0.2777283676E-37  0.1061408884E-42  0.0000000000E+00 -0.3826482831E-42  0.1198884423E-42  0.1490530352E-37  0.1490530352E-37 -0.3826482831E-42  0.0000000000E+00  0.0000000000E+00  0.1632552845E-38 -0.2777283676E-37  0.1061408884E-42  0.0000000000E+00  0.0000000000E+00  0.0000000000E+00 -0.3826482831E-42  0.1198884423E-42  0.1490530352E-37  0.0000000000E+00  0.0000000000E+00  0.0000000000E+00
47  0.1295069296E-47  0.2652142431E-47  0.3347654066E-48  0.2863528073E-48  0.1901383284E-47  0.1490530302E-37 -0.3826483104E-42  0.1632553717E-38 -0.2777283557E-37  0.1061406629E-42  0.0000000000E+00 -0.3826483104E-42  0.1198884676E-42  0.1490530302E-37  0.1490530302E-37 -0.3826483104E-42  0.0000000000E+00  0.0000000000E+00  0.1632553717E-38 -0.2777283557E-37  0.1061406629E-42  0.0000000000E+00  0.0000000000E+00  0.0000000000E+00 -0.3826483104E-42  0.1198884676E-42  0.1490530302E-37  0.0000000000E+00  0.0000000000E+00  0.0000000000E+00
48  0.9298598794E-48  0.1731717072E-47  0.2394932351E-48  0.4888074271E-48  0.9352779046E-48  0.1490530185E-37 -0.3826483337E-42  0.1632553735E-38 -0.2777283199E-37  0.1061403451E-42  0.0000000000E+00 -0.3826483337E-42  0.1198884657E-42  0.1490530185E-37  0.1490530185E-37 -0.3826483337E-42  0.0000000000E+00  0.0000000000E+00  0.1632553735E-38 -0.2777283199E-37  0.1061403451E-42  0.0000000000E+00  0.0000000000E+00  0.0000000000E+00 -0.3826483337E-42  0.1198884657E-42  0.1490530185E-37  0.0000000000E+00  0.0000000000E+00  0.0000000000E+00
49  0.6705540657E-48  0.1189260447E-47  0.1783707260E-48  0.5651764394E-48  0.3604459271E-48  0.1490530053E-37 -0.3826483434E-42  0.1632553632E-38 -0.2777282819E-37  0.1061400119E-42  0.0000000000E+00 -0.3826483434E-42  0.1198884588E-42  0.1490530053E-37  0.1490530053E-37 -0.3826483434E-42  0.0000000000E+00  0.0000000000E+00  0.1632553632E-38 -0.2777282819E-37  0.1061400119E-42  0.0000000000E+00  0.0000000000E+00  0.0000000000E+00 -0.3826483434E-42  0.1198884588E-42  0.1490530053E-37  0.0000000000E+00  0.0000000000E+00  0.0000000000E+00
50  0.5298985971E-48  0.7647057956E-48  0.1386637096E-48  0.5431312990E-48 -0.2988710187E-49  0.1490529924E-37 -0.3826483448E-42  0.1632553588E-38 -0.2777282475E-37  0.1061396848E-42  0.0000000000E+00 -0.3826483448E-42  0.1198884537E-42  0.1490529924E-37  0.1490529924E-37 -0.3826483448E-42  0.0000000000E+00  0.0000000000E+00  0.1632553588E-38 -0.2777282475E-37  0.1061396848E-42  0.0000000000E+00  0.0000000000E+00  0.0000000000E+00 -0.3826483448E-42  0.1198884537E-42  0.1490529924E-37  0.0000000000E+00  0.0000000000E+00  0.0000000000E+00
51  0.4720547054E-48  0.4865376948E-48  0.1018697808E-48  0.5060984555E-48 -0.1889247580E-48  0.1490529801E-37 -0.3826483432E-42  0.1632553562E-38 -0.2777282158E-37  0.1061393597E-42  0.0000000000E+00 -0.3826483432E-42  0.1198884494E-42  0.1490529801E-37  0.1490529801E-37 -0.3826483432E-42  0.0000000000E+00  0.0000000000E+00  0.1632553562E-38 -0.2777282158E-37  0.1061393597E-42  0.0000000000E+00  0.0000000000E+00  0.0000000000E+00 -0.3826483432E-42  0.1198884494E-42  0.1490529801E-37  0.0000000000E+00  0.0000000000E+00  0.0000000000E+00
52  0.4312446699E-48  0.3082638934E-48  0.7385884107E-49  0.4724006573E-48 -0.2464637929E-48  0.1490529682E-37 -0.3826483406E-42  0.1632553528E-38 -0.2777281856E-37  0.1061390341E-42  0.0000000000E+00 -0.3826483406E-42  0.1198884449E-42  0.1490529682E-37  0.1490529682E-37 -0.3826483406E-42  0.0000000000E+00  0.0000000000E+00  0.1632553528E-38 -0.2777281856E-37  0.1061390341E-42  0.0000000000E+00  0.0000000000E+00  0.0000000000E+00 -0.3826483406E-42  0.1198884449E-42  0.1490529682E-37  0.0000000000E+00  0.0000000000E+00  0.0000000000E+00
53  0.3899760964E-48  0.2001533836E-48  0.5103922819E-49  0.4463418249E-48 -0.2582563268E-48  0.1490529563E-37 -0.3826483374E-42  0.1632553486E-38 -0.2777281560E-37  0.1061387080E-42  0.0000000000E+00 -0.3826483374E-42  0.1198884403E-42  0.1490529563E-37  0.1490529563E-37 -0.3826483374E-42  0.0000000000E+00  0.0000000000E+00  0.1632553486E-38 -0.2777281560E-37  0.1061387080E-42  0.0000000000E+00  0.0000000000E+00  0.0000000000E+00 -0.3826483374E-42  0.1198884403E-42  0.1490529563E-37  0.0000000000E+00  0.0000000000E+00  0.0000000000E+00
54  0.3137819181E-48  0.1178006566E-48  0.3362623817E-49  0.4204520343E-48 -0.3336576082E-48  0.1490529446E-37 -0.3826483336E-42  0.1632553442E-38 -0.2777281269E-37  0.1061383818E-42  0.0000000000E+00 -0.3826483336E-42  0.1198884355E-42  0.1490529446E-37  0.1490529446E-37 -0.3826483336E-42  0.0000000000E+00  0.0000000000E+00  0.1632553442E-38 -0.2777281269E-37  0.1061383818E-42  0.0000000000E+00  0.0000000000E+00  0.0000000000E+00 -0.3826483336E-42  0.1198884355E-42  0.1490529446E-37  0.0000000000E+00  0.0000000000E+00  0.0000000000E+00