TITLE="fun3d_case_title"
VARIABLES="Iteration" "R_1" "R_2" "R_3" "R_4" "R_5" "C_L" "C_D" "C_M_x" "C_M_y" "C_M_z" "Wall Time" "C_x" "C_y" "C_z" "C_Lp" "C_Dp" "C_Lv" "C_Dv" "C_M_xp" "C_M_yp" "C_M_zp" "C_M_xv" "C_M_yv" "C_M_zv" "C_xp" "C_yp" "C_zp" "C_xv" "C_yv" "C_zv"
ZONE  I=100 F=POINT
1 -0.3488705904E-34  0.1084024972E-33 -0.1076525985E-34 -0.8185685032E-34  0.3908140429E-34  0.2709371570E-29 -0.1423653816E-30 -0.6782841996E-29 -0.6287498610E-29  0.7213387618E-33  0.0000000000E+00  0.2906400788E-33 -0.1212820862E-35  0.2709940208E-29  0.2709682185E-29 -0.1426704819E-30 -0.3106147475E-33  0.3051002305E-33 -0.6782192950E-29 -0.6286903211E-29 -0.5875741956E-46 -0.6490458642E-33 -0.5953987018E-33  0.7213387618E-33 -0.2651254491E-46  0.1981493602E-46  0.2709682185E-29  0.2906400788E-33 -0.1212820862E-35  0.2580230979E-33
2  0.5721599925E-34  0.1433338574E-33  0.1100214803E-36 -0.1224407432E-33 -0.8494870285E-32  0.2539990622E-29  0.6907980907E-31 -0.6361226681E-29 -0.5897603304E-29  0.6805928385E-33  0.0000000000E+00  0.2745531806E-33 -0.1914694072E-35  0.2540472871E-29  0.2540299735E-29  0.6885549244E-31 -0.3091136535E-33  0.2243166285E-33 -0.6360790494E-29 -0.5897279601E-29 -0.2444275455E-35 -0.4361868423E-33 -0.3237031957E-33  0.6830371139E-33 -0.2818329886E-36 -0.7406371785E-36  0.2540299711E-29  0.2748350136E-33 -0.1174056894E-35  0.1731597910E-33
3 -0.4283886846E-33 -0.2751668489E-33 -0.4731024747E-34 -0.5165759538E-33 -0.1199067263E-31  0.2055553281E-29  0.1916426765E-31 -0.5122826253E-29 -0.4596807340E-29  0.6362914550E-35  0.0000000000E+00  0.5338206110E-34 -0.5768997731E-34  0.2056134600E-29  0.2055963829E-29  0.1911009193E-31 -0.4105482194E-33  0.5417572015E-34 -0.5122395496E-29 -0.4596438082E-29 -0.1920847210E-33 -0.4307571704E-33 -0.3692586723E-33  0.1984476355E-33 -0.2484572012E-34 -0.5876105733E-34  0.2055963468E-29  0.7822778122E-34  0.1071080026E-35  0.1711328313E-33
4 -0.1329185535E-34  0.4950643451E-34  0.3388170057E-34  0.1503134124E-33 -0.8989647032E-32  0.2026762134E-29 -0.1150030209E-31 -0.5033107195E-29 -0.4590553802E-29 -0.8801959059E-34  0.0000000000E+00  0.1764071834E-34 -0.5294354694E-34  0.2027451344E-29  0.2027388277E-29 -0.1154537881E-31 -0.6261428161E-33  0.4507672063E-34 -0.5032947215E-29 -0.4590495481E-29 -0.1917323291E-33 -0.1599794744E-33 -0.5832076744E-34  0.1037127385E-33 -0.2408435470E-34 -0.5884168400E-34  0.2027389024E-29  0.4172507304E-34  0.5898137061E-35  0.6232042203E-34
5 -0.8358580737E-34 -0.1547622331E-35 -0.1515757436E-34 -0.1649180265E-34 -0.5838412565E-32  0.1843128503E-29  0.3217409952E-31 -0.4578516638E-29 -0.4085569865E-29 -0.4656232302E-33  0.0000000000E+00 -0.1482556108E-33 -0.4287320010E-34  0.1843906942E-29  0.1843957161E-29  0.3228678168E-31 -0.8286582630E-33 -0.1126821604E-33 -0.4578640973E-29 -0.4085732674E-29 -0.1717187969E-33  0.1243348120E-33  0.1628088154E-33 -0.2939044332E-33 -0.2246603670E-34 -0.5280799672E-34  0.1843958563E-29 -0.1257895741E-33  0.9934796614E-35 -0.5162144421E-34
6 -0.7079589610E-34  0.8521845209E-35 -0.1278884575E-34 -0.9011393672E-34 -0.3674560664E-32  0.1581655494E-29  0.1089625748E-30 -0.3948110794E-29 -0.3409209405E-29 -0.1232869544E-32  0.0000000000E+00 -0.4683438765E-33 -0.2876350108E-34  0.1582473688E-29  0.1582616508E-29  0.1094079308E-30 -0.9610139605E-33 -0.4453559785E-33 -0.3948478353E-29 -0.3409653217E-29 -0.1414609325E-33  0.3675583563E-33  0.4438119453E-33 -0.1091408612E-32 -0.1910427736E-34 -0.4398165936E-34  0.1582617509E-29 -0.4492395992E-33  0.1521815829E-34 -0.1438203470E-33
7 -0.6101513591E-34 -0.1279448442E-34  0.1044945205E-34 -0.1153854947E-34 -0.8025799772E-33  0.1294816831E-29  0.1534231960E-30 -0.3239812709E-29 -0.2754720800E-29 -0.2179438234E-32  0.0000000000E+00 -0.8492104169E-33 -0.2320870895E-34  0.1295549557E-29  0.1295681247E-29  0.1542984238E-30 -0.8644154365E-33 -0.8752277944E-33 -0.3240158684E-29 -0.2755205837E-29 -0.1123614056E-33  0.3459756970E-33  0.4850377606E-33 -0.2067076828E-32 -0.1519838736E-34 -0.3536291876E-34  0.1295681642E-29 -0.8340120296E-33  0.1215420982E-34 -0.1320850843E-33
8 -0.3918021097E-34 -0.6574364063E-35  0.5610445925E-36 -0.1616888879E-34  0.4021647242E-33  0.1148293661E-29  0.1513523579E-30 -0.2864911878E-29 -0.2397004700E-29 -0.2293866374E-32  0.0000000000E+00 -0.8965683175E-33 -0.2309260081E-34  0.1148932887E-29  0.1148974362E-29  0.1523145397E-30 -0.6807011009E-33 -0.9621818056E-33 -0.2865031734E-29 -0.2397246144E-29 -0.9608294663E-34  0.1198562898E-33  0.2414442570E-33 -0.2197783427E-32 -0.1340463418E-34 -0.3086664081E-34  0.1148974887E-29 -0.8831636833E-33  0.7774039995E-35 -0.4199921961E-34
9 -0.3350801165E-34  0.5878886054E-36 -0.5696943236E-35  0.1004508947E-34  0.4067834813E-33  0.1210077700E-29  0.1473029216E-30 -0.3018036362E-29 -0.2564750061E-29 -0.2311218585E-32  0.0000000000E+00 -0.8999659894E-33 -0.2916290209E-34  0.1210646833E-29  0.1210667743E-29  0.1482903812E-30 -0.5900423183E-33 -0.9874595916E-33 -0.3018100981E-29 -0.2564901984E-29 -0.1032056389E-33  0.6461927376E-34  0.1519221480E-33 -0.2208012946E-32 -0.1413747776E-34 -0.3302383244E-34  0.1210668315E-29 -0.8858285116E-33  0.3860930350E-35 -0.2148170326E-34
10 -0.3795848228E-34  0.2718147610E-35 -0.6707059000E-35  0.3212403077E-34 -0.1938003029E-33  0.1264834531E-29  0.1376165032E-30 -0.3156931776E-29 -0.2739065843E-29 -0.2282930225E-32  0.0000000000E+00 -0.8852305941E-33 -0.3385074761E-34  0.1265347103E-29  0.1265365351E-29  0.1386019235E-30 -0.5308198581E-33 -0.9854203380E-33 -0.3156987589E-29 -0.2739204674E-29 -0.1107398369E-33  0.5581384265E-34  0.1388304300E-33 -0.2172190389E-32 -0.1461771843E-34 -0.3512364979E-34  0.1265365918E-29 -0.8706128757E-33  0.1272902178E-35 -0.1881456407E-34
11 -0.5083256073E-34 -0.3396016809E-35 -0.5757777305E-35  0.2274748037E-34 -0.1527915375E-33  0.1292222890E-29  0.1289650716E-30 -0.3226987614E-29 -0.2816599746E-29 -0.2274397067E-32  0.0000000000E+00 -0.8803209226E-33 -0.3669487439E-34  0.1292690981E-29  0.1292713389E-29  0.1299533816E-30 -0.4904981588E-33 -0.9883100575E-33 -0.3227052578E-29 -0.2816738596E-29 -0.1140117516E-33  0.6496394717E-34  0.1388498687E-33 -0.2160385315E-32 -0.1486916623E-34 -0.3606113861E-34  0.1292713919E-29 -0.8654517564E-33 -0.6337357753E-36 -0.2293872142E-34
12 -0.5180536400E-34 -0.4823992140E-35 -0.4968673221E-35 -0.4133723278E-35 -0.1260883596E-33  0.1333022491E-29  0.1204874323E-30 -0.3329422681E-29 -0.2926668091E-29 -0.2251808219E-32  0.0000000000E+00 -0.8698256609E-33 -0.3940783965E-34  0.1333452499E-29  0.1333481714E-29  0.1214699481E-30 -0.4592230458E-33 -0.9825158395E-33 -0.3329504324E-29 -0.2926808338E-29 -0.1182104989E-33  0.8164268580E-34  0.1402470205E-33 -0.2133597720E-32 -0.1512255467E-34 -0.3735278643E-34  0.1333482236E-29 -0.8547031062E-33 -0.2055053226E-35 -0.2973746113E-34
13 -0.4426785257E-34 -0.5420391504E-35 -0.4935535613E-35 -0.2147732513E-34 -0.1026798713E-33  0.1351101225E-29  0.1170116195E-30 -0.3375637987E-29 -0.2974197245E-29 -0.2249478414E-32  0.0000000000E+00 -0.8682889711E-33 -0.4124427746E-34  0.1351500788E-29  0.1351532934E-29  0.1179952794E-30 -0.4317087908E-33 -0.9836598927E-33 -0.3375726773E-29 -0.2974330030E-29 -0.1200217796E-33  0.8878618215E-34  0.1327854502E-33 -0.2129456634E-32 -0.1525918421E-34 -0.3790676981E-34  0.1351533460E-29 -0.8530297869E-33 -0.3337507653E-35 -0.3267126356E-34
14 -0.3492013072E-34 -0.7770444437E-35 -0.3725092258E-35 -0.2053532699E-34 -0.8478173674E-34  0.1363568236E-29  0.1163906490E-30 -0.3406772254E-29 -0.3009319080E-29 -0.2249002498E-32  0.0000000000E+00 -0.8673633301E-33 -0.4279910922E-34  0.1363941594E-29  0.1363976410E-29  0.1173748109E-30 -0.4081734673E-33 -0.9841619021E-33 -0.3406867523E-29 -0.3009443688E-29 -0.1214753217E-33  0.9526830753E-34  0.1246082174E-33 -0.2127527176E-32 -0.1536053291E-34 -0.3832756274E-34  0.1363976933E-29 -0.8520027971E-33 -0.4471546474E-35 -0.3533910141E-34
15 -0.3128179403E-34 -0.7690118567E-35 -0.3150864950E-36 -0.1235768790E-34 -0.8037884553E-34  0.1369433940E-29  0.1174975378E-30 -0.3421287807E-29 -0.3028211041E-29 -0.2257524963E-32  0.0000000000E+00 -0.8702898765E-33 -0.4391369907E-34  0.1369784985E-29  0.1369820634E-29  0.1184852427E-30 -0.3866943275E-33 -0.9877049004E-33 -0.3421384749E-29 -0.3028325260E-29 -0.1223738015E-33  0.9694149873E-34  0.1142194916E-33 -0.2135151161E-32 -0.1541766190E-34 -0.3856219936E-34  0.1369821146E-29 -0.8548722146E-33 -0.5351499713E-35 -0.3616051978E-34
16 -0.3219211110E-34 -0.7113374840E-35  0.1680837609E-35 -0.1277282139E-34 -0.8239774883E-34  0.1379106850E-29  0.1186731043E-30 -0.3445379810E-29 -0.3057029296E-29 -0.2265435313E-32  0.0000000000E+00 -0.8725811721E-33 -0.4517729567E-34  0.1379437775E-29  0.1379474299E-29  0.1196630848E-30 -0.3674491066E-33 -0.9899805298E-33 -0.3445478519E-29 -0.3057134394E-29 -0.1236626642E-33  0.9870812568E-34  0.1050986270E-33 -0.2141772649E-32 -0.1550770519E-34 -0.3891753263E-34  0.1379474800E-29 -0.8570734669E-33 -0.6259763047E-35 -0.3702444513E-34
17 -0.3158903835E-34 -0.5553474111E-35  0.2152567967E-35 -0.2582895922E-34 -0.8024420306E-34  0.1384712746E-29  0.1203020647E-30 -0.3459344395E-29 -0.3074521129E-29 -0.2277546811E-32  0.0000000000E+00 -0.8766158552E-33 -0.4622995261E-34  0.1385025935E-29  0.1385062401E-29  0.1212957912E-30 -0.3496549391E-33 -0.9937264519E-33 -0.3459442595E-29 -0.3074617188E-29 -0.1244673851E-33  0.9820049800E-34  0.9605929315E-34 -0.2153079426E-32 -0.1556478730E-34 -0.3913658266E-34  0.1385062891E-29 -0.8610510679E-33 -0.7093369951E-35 -0.3695550195E-34
18 -0.2847086995E-34 -0.3768007605E-35  0.1590899986E-35 -0.3823465188E-34 -0.7272733705E-34  0.1392043440E-29  0.1217042526E-30 -0.3477331550E-29 -0.3096857473E-29 -0.2289357160E-32  0.0000000000E+00 -0.8804318109E-33 -0.4727730998E-34  0.1392340490E-29  0.1392376834E-29  0.1227012736E-30 -0.3333937789E-33 -0.9970210298E-33 -0.3477429141E-29 -0.3096945556E-29 -0.1254125164E-33  0.9759141908E-34  0.8808323793E-34 -0.2163944644E-32 -0.1561866097E-34 -0.3940743685E-34  0.1392377318E-29 -0.8648131499E-33 -0.7869873129E-35 -0.3682770421E-34
19 -0.2288127123E-34 -0.1675849950E-35  0.9675805985E-36 -0.3631985011E-34 -0.6012621375E-34  0.1397908691E-29  0.1231508815E-30 -0.3491691528E-29 -0.3115476639E-29 -0.2302829556E-32  0.0000000000E+00 -0.8847741320E-33 -0.4820211070E-34  0.1398191227E-29  0.1398227146E-29  0.1241516525E-30 -0.3184555189E-33 -0.1000770933E-32 -0.3491787878E-29 -0.3115557659E-29 -0.1261674847E-33  0.9634959871E-34  0.8101974812E-34 -0.2176662071E-32 -0.1565049824E-34 -0.3962756827E-34  0.1398227624E-29 -0.8691236338E-33 -0.8574542440E-35 -0.3639672053E-34
20 -0.1793046278E-34 -0.2034776890E-36  0.5072274835E-36 -0.2613583674E-34 -0.4885539061E-34  0.1404402384E-29  0.1244080661E-30 -0.3507568701E-29 -0.3135563471E-29 -0.2314609324E-32  0.0000000000E+00 -0.8884561988E-33 -0.4905634355E-34  0.1404671545E-29  0.1404707211E-29  0.1254118359E-30 -0.3048276722E-33 -0.1003769742E-32 -0.3507664214E-29 -0.3135638860E-29 -0.1269739731E-33  0.9551272546E-34  0.7538969974E-34 -0.2187635351E-32 -0.1568677236E-34 -0.3986488233E-34  0.1404707683E-29 -0.8727694264E-33 -0.9191461225E-35 -0.3613810959E-34
21 -0.1504329050E-34  0.8600973440E-36  0.1718352994E-36 -0.1408320236E-34 -0.4121309845E-34  0.1409698410E-29  0.1256473879E-30 -0.3520303703E-29 -0.3151991796E-29 -0.2326135979E-32  0.0000000000E+00 -0.8922093820E-33 -0.4978364188E-34  0.1409955306E-29  0.1409990743E-29  0.1266542189E-30 -0.2923333015E-33 -0.1006830975E-32 -0.3520398291E-29 -0.3152062641E-29 -0.1276350695E-33  0.9458822642E-34  0.7084567221E-34 -0.2198500909E-32 -0.1572266440E-34 -0.4005921697E-34  0.1409991207E-29 -0.8764867176E-33 -0.9724424915E-35 -0.3590165956E-34
22 -0.1422221596E-34  0.1128738616E-35 -0.9559349151E-37 -0.5797681511E-35 -0.3810405770E-34  0.1414452577E-29  0.1267748287E-30 -0.3531910912E-29 -0.3166581349E-29 -0.2336473765E-32  0.0000000000E+00 -0.8955833435E-33 -0.5041252995E-34  0.1414698020E-29  0.1414733391E-29  0.1277843496E-30 -0.2808147465E-33 -0.1009520892E-32 -0.3532004992E-29 -0.3166648810E-29 -0.1282228111E-33  0.9408033090E-34  0.6746060892E-34 -0.2208250953E-32 -0.1575145587E-34 -0.4023240145E-34  0.1414733847E-29 -0.8798318876E-33 -0.1018012850E-34 -0.3582648459E-34
23 -0.1438867679E-34  0.9291977580E-36 -0.3734217930E-36 -0.3048314048E-35 -0.3725381217E-34  0.1418016796E-29  0.1278679286E-30 -0.3540734884E-29 -0.3177721845E-29 -0.2346438501E-32  0.0000000000E+00 -0.8989481202E-33 -0.5092765471E-34  0.1418251605E-29  0.1418286932E-29  0.1288801868E-30 -0.2701357757E-33 -0.1012258185E-32 -0.3540828542E-29 -0.3177786765E-29 -0.1286722738E-33  0.9365811074E-34  0.6492016560E-34 -0.2217766228E-32 -0.1577131539E-34 -0.4036593291E-34  0.1418287379E-29 -0.8831768048E-33 -0.1056172180E-34 -0.3577417348E-34
24 -0.1408797590E-34  0.5421431975E-36 -0.6455276604E-36 -0.5345911002E-35 -0.3566179617E-34  0.1421033844E-29  0.1288546461E-30 -0.3548111609E-29 -0.3187121242E-29 -0.2355360132E-32  0.0000000000E+00 -0.9020166504E-33 -0.5135100618E-34  0.1421258657E-29  0.1421294070E-29  0.1298694016E-30 -0.2602269529E-33 -0.1014755563E-32 -0.3548205166E-29 -0.3187184518E-29 -0.1290540696E-33  0.9355709950E-34  0.6327530797E-34 -0.2226306062E-32 -0.1578601659E-34 -0.4047875233E-34  0.1421294511E-29 -0.8862306338E-33 -0.1087225386E-34 -0.3585347935E-34
25 -0.1275206862E-34  0.1720076845E-36 -0.8695301599E-36 -0.1006434553E-34 -0.3232995464E-34  0.1423243606E-29  0.1297666360E-30 -0.3553532592E-29 -0.3194189301E-29 -0.2363775917E-32  0.0000000000E+00 -0.9050211749E-33 -0.5167818936E-34  0.1423459092E-29  0.1423494616E-29  0.1307839030E-30 -0.2510097881E-33 -0.1017266918E-32 -0.3553626133E-29 -0.3194251485E-29 -0.1293414817E-33  0.9354043951E-34  0.6218344989E-34 -0.2234434435E-32 -0.1579340720E-34 -0.4056300355E-34  0.1423495051E-29 -0.8892277677E-33 -0.1111518581E-34 -0.3595885810E-34
26 -0.1050040772E-34 -0.4800279301E-37 -0.9951962445E-36 -0.1339768167E-34 -0.2731706883E-34  0.1424983783E-29  0.1305864670E-30 -0.3557812503E-29 -0.3199924855E-29 -0.2371641416E-32  0.0000000000E+00 -0.9079141655E-33 -0.5193211397E-34  0.1425190544E-29  0.1425226212E-29  0.1316062172E-30 -0.2424288889E-33 -0.1019750250E-32 -0.3557906150E-29 -0.3199986393E-29 -0.1295753119E-33  0.9364752989E-34  0.6153824416E-34 -0.2242066104E-32 -0.1579567473E-34 -0.4063105566E-34  0.1425226644E-29 -0.8921184908E-33 -0.1130105831E-34 -0.3610034665E-34
27 -0.8022647034E-35 -0.1869824972E-36 -0.1017500595E-35 -0.1357162355E-34 -0.2181224659E-34  0.1426551244E-29  0.1312974963E-30 -0.3561699760E-29 -0.3205117850E-29 -0.2379145773E-32  0.0000000000E+00 -0.9107208948E-33 -0.5214486683E-34  0.1426749841E-29  0.1426785698E-29  0.1323197128E-30 -0.2344542230E-33 -0.1022216471E-32 -0.3561793669E-29 -0.3205179091E-29 -0.1297879216E-33  0.9390869012E-34  0.6124037054E-34 -0.2249357851E-32 -0.1579576535E-34 -0.4069278721E-34  0.1426786130E-29 -0.8949251294E-33 -0.1145207962E-34 -0.3628837481E-34
28 -0.5865753377E-35 -0.1994565929E-36 -0.9654287689E-36 -0.1114422150E-34 -0.1696494421E-34  0.1428208059E-29  0.1318922323E-30 -0.3565708584E-29 -0.3210571839E-29 -0.2385564213E-32  0.0000000000E+00 -0.9131435729E-33 -0.5231454800E-34  0.1428398903E-29  0.1428435031E-29  0.1329165625E-30 -0.2269717401E-33 -0.1024330203E-32 -0.3565802966E-29 -0.3210633134E-29 -0.1300145434E-33  0.9438273762E-34  0.6129521587E-34 -0.2255549669E-32 -0.1579585986E-34 -0.4075796948E-34  0.1428435462E-29 -0.8973477130E-33 -0.1155657853E-34 -0.3655925686E-34
29 -0.4417676378E-35 -0.1713302629E-36 -0.8694610759E-36 -0.7737734060E-35 -0.1314984145E-34  0.1429617429E-29  0.1324405879E-30 -0.3569197292E-29 -0.3215209548E-29 -0.2391594006E-32  0.0000000000E+00 -0.9154746960E-33 -0.5244585735E-34  0.1429801003E-29  0.1429837404E-29  0.1334669835E-30 -0.2199750891E-33 -0.1026395654E-32 -0.3569292222E-29 -0.3215270934E-29 -0.1302052037E-33  0.9492952756E-34  0.6138598259E-34 -0.2261388803E-32 -0.1579277343E-34 -0.4081287045E-34  0.1429837837E-29 -0.8996819226E-33 -0.1163298690E-34 -0.3683359313E-34
30 -0.3443840330E-35 -0.1652677725E-36 -0.7597138199E-36 -0.4315172799E-35 -0.1044143204E-34  0.1430853586E-29  0.1329403319E-30 -0.3572238492E-29 -0.3219315631E-29 -0.2397182828E-32  0.0000000000E+00 -0.9176886719E-33 -0.5253949751E-34  0.1431030321E-29  0.1431066990E-29  0.1339687262E-30 -0.2134035742E-33 -0.1028394337E-32 -0.3572334017E-29 -0.3219377121E-29 -0.1303708434E-33  0.9552485192E-34  0.6149052536E-34 -0.2266811985E-32 -0.1578914749E-34 -0.4086119468E-34  0.1431067424E-29 -0.9018995244E-33 -0.1167830282E-34 -0.3710259302E-34
31 -0.2827153880E-35 -0.1891466679E-36 -0.6527703037E-36 -0.1739042960E-35 -0.8537261919E-35  0.1431958614E-29  0.1333828290E-30 -0.3574934166E-29 -0.3223018667E-29 -0.2402327698E-32  0.0000000000E+00 -0.9197756215E-33 -0.5259801430E-34  0.1432128896E-29  0.1432165833E-29  0.1344131355E-30 -0.2072185884E-33 -0.1030306543E-32 -0.3575030327E-29 -0.3223080286E-29 -0.1305171350E-33  0.9616114349E-34  0.6161936253E-34 -0.2271810563E-32 -0.1578521429E-34 -0.4090444820E-34  0.1432166268E-29 -0.9039904072E-33 -0.1169356610E-34 -0.3737225833E-34
32 -0.2387790972E-35 -0.2334395415E-36 -0.5576452934E-36 -0.4583412685E-36 -0.7081348571E-35  0.1432983435E-29  0.1337536182E-30 -0.3577371795E-29 -0.3226528894E-29 -0.2406694072E-32  0.0000000000E+00 -0.9215921212E-33 -0.5261616254E-34  0.1433147547E-29  0.1433184758E-29  0.1347855831E-30 -0.2013227115E-33 -0.1031964848E-32 -0.3577468602E-29 -0.3226590739E-29 -0.1306548151E-33  0.9680739293E-34  0.6184480124E-34 -0.2276039257E-32 -0.1578078313E-34 -0.4094522887E-34  0.1433185194E-29 -0.9058113381E-33 -0.1167093367E-34 -0.3764660386E-34
33 -0.2056936565E-35 -0.2698055545E-36 -0.4740580731E-36 -0.4865287778E-36 -0.5595106219E-35  0.1433862669E-29  0.1341040579E-30 -0.3579486756E-29 -0.3229459979E-29 -0.2410708700E-32  0.0000000000E+00 -0.9233120162E-33 -0.5260206799E-34  0.1434020938E-29  0.1434058423E-29  0.1351376047E-30 -0.1957537243E-33 -0.1033546739E-32 -0.3579584237E-29 -0.3229522045E-29 -0.1307678515E-33  0.9748171362E-34  0.6206637948E-34 -0.2279940849E-32 -0.1577693192E-34 -0.4097925518E-34  0.1434058859E-29 -0.9075350842E-33 -0.1162281280E-34 -0.3792090785E-34
34 -0.1776670840E-35 -0.3274571475E-36 -0.4016922345E-36 -0.1534159044E-35 -0.4380538040E-35  0.1434602752E-29  0.1344300947E-30 -0.3581281583E-29 -0.3231941949E-29 -0.2414344135E-32  0.0000000000E+00 -0.9249179170E-33 -0.5255641292E-34  0.1434755473E-29  0.1434793223E-29  0.1354651361E-30 -0.1904712825E-33 -0.1035041417E-32 -0.3581379743E-29 -0.3232004249E-29 -0.1308626586E-33  0.9815967210E-34  0.6229983679E-34 -0.2283481476E-32 -0.1577361606E-34 -0.4100750105E-34  0.1434793659E-29 -0.9091443010E-33 -0.1154891187E-34 -0.3818676452E-34
35 -0.1351589427E-35 -0.3497383668E-36 -0.3295942121E-36 -0.2945421565E-35 -0.3477166129E-35  0.1435240339E-29  0.1347248697E-30 -0.3582825982E-29 -0.3233985180E-29 -0.2417697256E-32  0.0000000000E+00 -0.9264408844E-33 -0.5248474250E-34  0.1435387780E-29  0.1435425807E-29  0.1357613458E-30 -0.1854686618E-33 -0.1036476070E-32 -0.3582924872E-29 -0.3234047743E-29 -0.1309395307E-33  0.9888992724E-34  0.6256277000E-34 -0.2286757725E-32 -0.1577049081E-34 -0.4103135525E-34  0.1435426243E-29 -0.9106703936E-33 -0.1145338725E-34 -0.3846325526E-34
36 -0.8125431447E-36 -0.2594131640E-36 -0.2652997118E-36 -0.4086318634E-35 -0.2543928122E-35  0.1435736425E-29  0.1349746066E-30 -0.3584071102E-29 -0.3235478229E-29 -0.2420711140E-32  0.0000000000E+00 -0.9278982787E-33 -0.5238446441E-34  0.1435878796E-29  0.1435917005E-29  0.1360124562E-30 -0.1805803911E-33 -0.1037849600E-32 -0.3584170557E-29 -0.3235540763E-29 -0.1309966597E-33  0.9945496159E-34  0.6253380124E-34 -0.2289714480E-32 -0.1577005171E-34 -0.4104930978E-34  0.1435917441E-29 -0.9121282270E-33 -0.1133515464E-34 -0.3864531381E-34
37 -0.6010079272E-36 -0.2156190943E-36 -0.2012588494E-36 -0.4610641542E-35 -0.1371804680E-35  0.1436290441E-29  0.1352167006E-30 -0.3585324096E-29 -0.3237224639E-29 -0.2423581933E-32  0.0000000000E+00 -0.9293035960E-33 -0.5227130388E-34  0.1436427979E-29  0.1436466435E-29  0.1362558855E-30 -0.1759941690E-33 -0.1039184882E-32 -0.3585424238E-29 -0.3237287388E-29 -0.1310658577E-33  0.1001413724E-33  0.6274900635E-34 -0.2292516075E-32 -0.1576752461E-34 -0.4107045195E-34  0.1436466870E-29 -0.9135360714E-33 -0.1120085193E-34 -0.3889095970E-34
38 -0.3834668528E-36 -0.2146805938E-36 -0.1425731102E-36 -0.4545741282E-35 -0.6824822977E-36  0.1436712423E-29  0.1354481301E-30 -0.3586300263E-29 -0.3238495936E-29 -0.2426372283E-32  0.0000000000E+00 -0.9306992831E-33 -0.5214275522E-34  0.1436845350E-29  0.1436884078E-29  0.1364886558E-30 -0.1716548892E-33 -0.1040525695E-32 -0.3586401151E-29 -0.3238559003E-29 -0.1311166662E-33  0.1008884097E-33  0.6306685372E-34 -0.2295255617E-32 -0.1576614835E-34 -0.4108593915E-34  0.1436884513E-29 -0.9149331348E-33 -0.1105681606E-34 -0.3916246663E-34
39 -0.1338959481E-36 -0.1056711473E-36 -0.8601501155E-37 -0.4047139265E-35 -0.2266577156E-36  0.1437020971E-29  0.1356630178E-30 -0.3587031286E-29 -0.3239191389E-29 -0.2429440229E-32  0.0000000000E+00 -0.9322210325E-33 -0.5200315130E-34  0.1437149493E-29  0.1437188400E-29  0.1367050195E-30 -0.1674293971E-33 -0.1042001721E-32 -0.3587132710E-29 -0.3239254388E-29 -0.1311547249E-33  0.1014243904E-33  0.6299967726E-34 -0.2298285504E-32 -0.1576918792E-34 -0.4109688036E-34  0.1437188835E-29 -0.9164518446E-33 -0.1090627095E-34 -0.3934147031E-34
40 -0.1266509529E-35 -0.6399830089E-37 -0.3132783166E-37 -0.3364640432E-35  0.1696371075E-36  0.1437428362E-29  0.1358489147E-30 -0.3587985980E-29 -0.3240983469E-29 -0.2431536405E-32  0.0000000000E+00 -0.9334185788E-33 -0.5185740273E-34  0.1437552649E-29  0.1437591767E-29  0.1368920601E-30 -0.1634048987E-33 -0.1043145367E-32 -0.3588088004E-29 -0.3241046912E-29 -0.1312639484E-33  0.1020246188E-33  0.6344298586E-34 -0.2300272456E-32 -0.1578187515E-34 -0.4111541341E-34  0.1437592201E-29 -0.9176367036E-33 -0.1074198932E-34 -0.3955161755E-34
41 -0.6921446718E-36 -0.8772330970E-37  0.8215393040E-37 -0.2644213321E-35 -0.2143566307E-35  0.1437621567E-29  0.1360327403E-30 -0.3588317034E-29 -0.3241359485E-29 -0.2433989063E-32  0.0000000000E+00 -0.9347407381E-33 -0.5170276420E-34  0.1437741808E-29  0.1437781223E-29  0.1370771720E-30 -0.1596560799E-33 -0.1044431714E-32 -0.3588419928E-29 -0.3241423431E-29 -0.1312798404E-33  0.1028937064E-33  0.6394657805E-34 -0.2302709222E-32 -0.1578152174E-34 -0.4112139908E-34  0.1437781658E-29 -0.9189592163E-33 -0.1058136512E-34 -0.3984952530E-34
42 -0.4574667980E-36 -0.6575369386E-37  0.1542077255E-36 -0.1875901344E-35 -0.2552072024E-35  0.1437621828E-29  0.1362124592E-30 -0.3588051610E-29 -0.3241155996E-29 -0.2436463619E-32  0.0000000000E+00 -0.9360781582E-33 -0.5154092778E-34  0.1437738198E-29  0.1437777861E-29  0.1372582068E-30 -0.1560327877E-33 -0.1045747576E-32 -0.3588155175E-29 -0.3241220257E-29 -0.1312588182E-33  0.1035647047E-33  0.6426092030E-34 -0.2305204800E-32 -0.1577531923E-34 -0.4111952450E-34  0.1437778295E-29 -0.9203028390E-33 -0.1042140328E-34 -0.4009723425E-34
43 -0.5644376463E-36 -0.6453932296E-37  0.1826038392E-36 -0.1172667028E-35 -0.2165773341E-35  0.1437659132E-29  0.1363829392E-30 -0.3588126991E-29 -0.3241278323E-29 -0.2438865552E-32  0.0000000000E+00 -0.9373533074E-33 -0.5140454119E-34  0.1437771795E-29  0.1437811669E-29  0.1374299431E-30 -0.1525372905E-33 -0.1047003859E-32 -0.3588231127E-29 -0.3241342831E-29 -0.1312479119E-33  0.1041356451E-33  0.6450833752E-34 -0.2307617640E-32 -0.1577324340E-34 -0.4111878015E-34  0.1437812103E-29 -0.9215800640E-33 -0.1028576104E-34 -0.4030762740E-34
44 -0.6493939951E-36 -0.4521640436E-37  0.1964657283E-36 -0.5843944714E-36 -0.2024298909E-35  0.1437792074E-29  0.1365320205E-30 -0.3588400907E-29 -0.3241680121E-29 -0.2441005239E-32  0.0000000000E+00 -0.9385139285E-33 -0.5126483311E-34  0.1437901172E-29  0.1437941273E-29  0.1375801621E-30 -0.1491989853E-33 -0.1048141522E-32 -0.3588505686E-29 -0.3241744948E-29 -0.1312670017E-33  0.1047791469E-33  0.6482636293E-34 -0.2309738238E-32 -0.1577332372E-34 -0.4112406264E-34  0.1437941707E-29 -0.9227406048E-33 -0.1014077047E-34 -0.4053491325E-34
45 -0.7171836129E-36 -0.2412106474E-37  0.2185435258E-36 -0.1403884902E-36 -0.2016018886E-35  0.1437938869E-29  0.1366809733E-30 -0.3588697095E-29 -0.3242032424E-29 -0.2443054872E-32  0.0000000000E+00 -0.9396496448E-33 -0.5111020697E-34  0.1438044551E-29  0.1438084921E-29  0.1377302273E-30 -0.1460528249E-33 -0.1049254026E-32 -0.3588802642E-29 -0.3242097666E-29 -0.1312918114E-33  0.1055467227E-33  0.6524156683E-34 -0.2311763061E-32 -0.1577452969E-34 -0.4113031802E-34  0.1438085355E-29 -0.9238751151E-33 -0.9979888957E-35 -0.4080410930E-34
46 -0.5792254524E-36  0.5120829176E-37  0.2306779701E-36  0.1546419933E-36 -0.2111613273E-35  0.1438017291E-29  0.1368289756E-30 -0.3588734916E-29 -0.3242012750E-29 -0.2445160675E-32  0.0000000000E+00 -0.9408236375E-33 -0.5092385101E-34  0.1438119699E-29  0.1438160288E-29  0.1378793821E-30 -0.1429969959E-33 -0.1050406443E-32 -0.3588841046E-29 -0.3242078153E-29 -0.1313183621E-33  0.1061297361E-33  0.6540362956E-34 -0.2313842313E-32 -0.1577825691E-34 -0.4113550908E-34  0.1438160722E-29 -0.9250453806E-33 -0.9788341928E-35 -0.4102317566E-34
47 -0.7003479461E-36  0.1161128859E-36  0.2513768201E-36  0.3083689546E-36 -0.2063200567E-35  0.1438191284E-29  0.1369717344E-30 -0.3589179754E-29 -0.3242486109E-29 -0.2447132188E-32  0.0000000000E+00 -0.9419620225E-33 -0.5072520886E-34  0.1438290549E-29  0.1438331425E-29  0.1380232661E-30 -0.1401410333E-33 -0.1051531638E-32 -0.3589286679E-29 -0.3242551933E-29 -0.1313368716E-33  0.1069247620E-33  0.6582414441E-34 -0.2315795316E-32 -0.1577766724E-34 -0.4114154356E-34  0.1438331859E-29 -0.9261843552E-33 -0.9583665303E-35 -0.4131008237E-34
48 -0.7683547051E-36  0.1376499002E-36  0.2697888187E-36  0.4064552914E-36 -0.2193788330E-35  0.1438271422E-29  0.1370977523E-30 -0.3589358116E-29 -0.3242698807E-29 -0.2448934402E-32  0.0000000000E+00 -0.9430522455E-33 -0.5050547980E-34  0.1438367658E-29  0.1438408831E-29  0.1381503589E-30 -0.1374092121E-33 -0.1052606584E-32 -0.3589465866E-29 -0.3242765160E-29 -0.1313452016E-33  0.1077496338E-33  0.6635210674E-34 -0.2317589200E-32 -0.1577682083E-34 -0.4114454568E-34  0.1438409264E-29 -0.9272754246E-33 -0.9360934116E-35 -0.4160640794E-34
49 -0.8124517149E-36  0.1567127944E-36  0.2866245768E-36  0.4521682650E-36 -0.2370284904E-35  0.1438305915E-29  0.1372238394E-30 -0.3589393433E-29 -0.3242718524E-29 -0.2450714422E-32  0.0000000000E+00 -0.9441392682E-33 -0.5027442481E-34  0.1438399243E-29  0.1438440711E-29  0.1382775165E-30 -0.1347963277E-33 -0.1053677147E-32 -0.3589501991E-29 -0.3242785416E-29 -0.1313507588E-33  0.1085585848E-33  0.6689289131E-34 -0.2319363663E-32 -0.1577718342E-34 -0.4114607749E-34  0.1438441144E-29 -0.9283620847E-33 -0.9128347320E-35 -0.4190159012E-34
50 -0.1159385364E-35  0.1799509640E-36  0.2935591340E-36  0.4336331004E-36 -0.2553019255E-35  0.1438338374E-29  0.1373503423E-30 -0.3589425819E-29 -0.3243049453E-29 -0.2452137487E-32  0.0000000000E+00 -0.9450744068E-33 -0.5004355624E-34  0.1438428906E-29  0.1438470627E-29  0.1384049369E-30 -0.1322527440E-33 -0.1054594579E-32 -0.3589535066E-29 -0.3243116994E-29 -0.1313848043E-33  0.1092475987E-33  0.6754147389E-34 -0.2320752683E-32 -0.1578192461E-34 -0.4115485980E-34  0.1438471059E-29 -0.9292924822E-33 -0.8888696436E-35 -0.4215321643E-34
51 -0.1577076837E-35  0.1950551280E-36  0.2707070778E-36  0.2486186976E-36 -0.3176097742E-35  0.1438325388E-29  0.1374731616E-30 -0.3589368056E-29 -0.3243209459E-29 -0.2453432667E-32  0.0000000000E+00 -0.9459094582E-33 -0.4980735824E-34  0.1438413230E-29  0.1438455225E-29  0.1385285783E-30 -0.1298375507E-33 -0.1055416711E-32 -0.3589478054E-29 -0.3243277805E-29 -0.1314053747E-33  0.1099979546E-33  0.6834576979E-34 -0.2322027292E-32 -0.1578521782E-34 -0.4116356011E-34  0.1438455657E-29 -0.9301242404E-33 -0.8643798132E-35 -0.4242666394E-34
52 -0.1387630339E-35  0.2018520387E-36  0.2129664624E-36  0.1831223897E-36 -0.4184561968E-35  0.1438188157E-29  0.1375820553E-30 -0.3589063144E-29 -0.3242592145E-29 -0.2454678064E-32  0.0000000000E+00 -0.9467772942E-33 -0.4954349786E-34  0.1438273405E-29  0.1438315686E-29  0.1386383311E-30 -0.1275284368E-33 -0.1056275761E-32 -0.3589173881E-29 -0.3242661180E-29 -0.1313749229E-33  0.1107375366E-33  0.6903523160E-34 -0.2323303141E-32 -0.1578256681E-34 -0.4115523615E-34  0.1438316117E-29 -0.9309947274E-33 -0.8388261706E-35 -0.4271133671E-34
53 -0.1878368453E-35  0.2305150448E-36  0.2245021747E-36  0.2013641871E-36 -0.4400011930E-35  0.1438081865E-29  0.1376911169E-30 -0.3588819464E-29 -0.3242541574E-29 -0.2455718567E-32  0.0000000000E+00 -0.9474663066E-33 -0.4927212811E-34  0.1438164617E-29  0.1438207074E-29  0.1387480676E-30 -0.1252094805E-33 -0.1056950705E-32 -0.3588930772E-29 -0.3242611262E-29 -0.1313754927E-33  0.1113081131E-33  0.6968806147E-34 -0.2324343074E-32 -0.1578528652E-34 -0.4115298769E-34  0.1438207505E-29 -0.9316810200E-33 -0.8119140418E-35 -0.4288820777E-34
54 -0.1716803274E-35  0.2485117379E-36  0.2575291587E-36  0.2496825543E-36 -0.5578631126E-35  0.1438004878E-29  0.1378009045E-30 -0.3588652088E-29 -0.3242101758E-29 -0.2456715617E-32  0.0000000000E+00 -0.9481619536E-33 -0.4899550410E-34  0.1438085226E-29  0.1438127864E-29  0.1388585410E-30 -0.1229863710E-33 -0.1057636530E-32 -0.3588763960E-29 -0.3242171993E-29 -0.1313555889E-33  0.1118715329E-33  0.7023547110E-34 -0.2325360028E-32 -0.1578644216E-34 -0.4114596464E-34  0.1438128294E-29 -0.9323755114E-33 -0.7849539460E-35 -0.4306841622E-34