TITLE="fun3d_case_title"
VARIABLES="Iteration" "R_1" "R_2" "R_3" "R_4" "R_5" "C_L" "C_D" "C_M_x" "C_M_y" "C_M_z" "Wall Time" "C_x" "C_y" "C_z" "C_Lp" "C_Dp" "C_Lv" "C_Dv" "C_M_xp" "C_M_yp" "C_M_zp" "C_M_xv" "C_M_yv" "C_M_zv" "C_xp" "C_yp" "C_zp" "C_xv" "C_yv" "C_zv"
ZONE  I=300 F=POINT
1  0.0000000000E+00  0.0000000000E+00  0.0000000000E+00  0.0000000000E+00  0.0000000000E+00  0.0000000000E+00  0.0000000000E+00  0.0000000000E+00  0.0000000000E+00  0.0000000000E+00  0.0000000000E+00  0.0000000000E+00  0.0000000000E+00  0.0000000000E+00  0.0000000000E+00  0.0000000000E+00  0.0000000000E+00  0.0000000000E+00  0.0000000000E+00  0.0000000000E+00  0.0000000000E+00  0.0000000000E+00  0.0000000000E+00  0.0000000000E+00  0.0000000000E+00  0.0000000000E+00  0.0000000000E+00  0.0000000000E+00  0.0000000000E+00  0.0000000000E+00
2  0.2763135320E-41  0.2440188496E-41 -0.8303534896E-42 -0.4881552962E-41 -0.2935729954E-40  0.5837295333E-36 -0.1336649138E-37 -0.1413193322E-35 -0.1421665043E-35 -0.2064078485E-37  0.0000000000E+00 -0.1336649138E-37 -0.1374101577E-37  0.5837295333E-36  0.5837532659E-36 -0.1342217188E-37 -0.2373258229E-40  0.5568050907E-40 -0.1413245239E-35 -0.1421907204E-35 -0.2080229051E-37  0.5191649302E-40  0.2421606237E-39  0.1615056603E-39 -0.1342217188E-37 -0.1374495776E-37  0.5837532659E-36  0.5568050907E-40  0.3941987525E-41 -0.2373258229E-40
3  0.2519237076E-38  0.2011225570E-38 -0.4477962925E-40  0.5322338932E-40  0.2846562734E-38  0.5729518818E-34 -0.9148428750E-36 -0.1364621524E-33 -0.1302340525E-33  0.1154136459E-36  0.0000000000E+00 -0.9148428750E-36 -0.1326910942E-36  0.5729518818E-34  0.5729762624E-34 -0.9191224515E-36 -0.2438054024E-38  0.4279576475E-38 -0.1364675807E-33 -0.1302527115E-33  0.1035968268E-36  0.5428298917E-38  0.1865901143E-37  0.1181681904E-37 -0.9191224515E-36 -0.1329299531E-36  0.5729762624E-34  0.4279576475E-38  0.2388589442E-39 -0.2438054024E-38
4  0.4300630107E-39  0.5320923279E-39 -0.5324475427E-40  0.7628533624E-39  0.1466346982E-38  0.4588973630E-34 -0.5459062206E-36 -0.1109269508E-33 -0.7935540173E-34  0.5350266512E-36  0.0000000000E+00 -0.5459062206E-36  0.2582040383E-36  0.4588973630E-34  0.4589434305E-34 -0.5485682184E-36 -0.4606751389E-38  0.2661997817E-38 -0.1109373026E-33 -0.7937524360E-34  0.5269196893E-36  0.1035180086E-37  0.1984186798E-37  0.8106961905E-38 -0.5485682184E-36  0.2579423498E-36  0.4589434305E-34  0.2661997817E-38  0.2616884424E-39 -0.4606751389E-38
5 -0.6902778692E-39 -0.3112265279E-39 -0.2254979528E-41  0.2078145994E-39 -0.2184300128E-38  0.2997419454E-34 -0.3141765004E-36 -0.7346708968E-34 -0.3675238320E-34  0.4104697181E-36  0.0000000000E+00 -0.3141765004E-36  0.3303938657E-36  0.2997419454E-34  0.2997894137E-34 -0.3153140270E-36 -0.4746828313E-38  0.1137526613E-38 -0.7347780273E-34 -0.3676910108E-34  0.4062241923E-36  0.1071305919E-37  0.1671787279E-37  0.4245525873E-38 -0.3153140270E-36  0.3301447158E-36  0.2997894137E-34  0.1137526613E-38  0.2491498224E-39 -0.4746828313E-38
6 -0.5714208719E-39 -0.3633282894E-39  0.3818138352E-41 -0.3866690147E-39 -0.1677033793E-38  0.2113438877E-34 -0.1977422782E-36 -0.5178193630E-34 -0.2182612840E-34  0.2419018911E-36  0.0000000000E+00 -0.1977422782E-36  0.3130357641E-36  0.2113438877E-34  0.2113849856E-34 -0.1980430552E-36 -0.4109791038E-38  0.3007769726E-39 -0.5179123563E-34 -0.2183920916E-34  0.2399243094E-36  0.9299329893E-38  0.1308076112E-37  0.1977581672E-38 -0.1980430552E-36  0.3127899474E-36  0.2113849856E-34  0.3007769726E-39  0.2458167182E-39 -0.4109791038E-38
7 -0.1982131107E-39 -0.8472999250E-40 -0.8166274637E-41 -0.4151509602E-39 -0.1594922036E-39  0.1819707262E-34 -0.1496712538E-36 -0.4398162921E-34 -0.2144548704E-34  0.1552216686E-36  0.0000000000E+00 -0.1496712538E-36  0.2965617905E-36  0.1819707262E-34  0.1820051083E-34 -0.1496201048E-36 -0.3438210010E-38 -0.5114902224E-40 -0.4398940098E-34 -0.2145611847E-34  0.1542434452E-36  0.7771773191E-38  0.1063143072E-37  0.9782233813E-39 -0.1496201048E-36  0.2963065126E-36  0.1820051083E-34 -0.5114902224E-40  0.2552778891E-39 -0.3438210010E-38
8  0.3960374465E-40  0.7345244100E-40 -0.6517542546E-41 -0.2852145723E-39  0.2930430149E-39  0.1853960680E-34 -0.1323025935E-36 -0.4429983563E-34 -0.2576124605E-34  0.1288528296E-36  0.0000000000E+00 -0.1323025935E-36  0.2959874649E-36  0.1853960680E-34  0.1854261918E-34 -0.1321406453E-36 -0.3012377200E-38 -0.1619481806E-39 -0.4430661884E-34 -0.2577073591E-34  0.1281828361E-36  0.6783214575E-38  0.9489858485E-38  0.6699935055E-39 -0.1321406453E-36  0.2957160069E-36  0.1854261918E-34 -0.1619481806E-39  0.2714579587E-39 -0.3012377200E-38
9  0.6204032596E-40  0.1100176967E-39 -0.9256818888E-41 -0.1886747549E-39  0.1190641383E-39  0.2004251139E-34 -0.1223614160E-36 -0.4767073136E-34 -0.3007259712E-34  0.1237622640E-36  0.0000000000E+00 -0.1223614160E-36  0.3038192264E-36  0.2004251139E-34  0.2004534945E-34 -0.1221634790E-36 -0.2838058971E-38 -0.1979370005E-39 -0.4767709982E-34 -0.3008176471E-34  0.1231664507E-36  0.6368460313E-38  0.9167589058E-38  0.5958133887E-39 -0.1221634790E-36  0.3035311387E-36  0.2004534945E-34 -0.1979370005E-39  0.2880876583E-39 -0.2838058971E-38
10  0.2371855306E-41  0.1024203440E-39 -0.1531776912E-40 -0.1287147568E-39 -0.8192070907E-40  0.2137102033E-34 -0.1109188505E-36 -0.5079026203E-34 -0.3261815704E-34  0.1073681100E-36  0.0000000000E+00 -0.1109188505E-36  0.3114094172E-36  0.2137102033E-34  0.2137383527E-34 -0.1106703714E-36 -0.2814945096E-38 -0.2484791764E-39 -0.5079656987E-34 -0.3262730108E-34  0.1068744083E-36  0.6307838011E-38  0.9144042790E-38  0.4937017423E-39 -0.1106703714E-36  0.3111080158E-36  0.2137383527E-34 -0.2484791764E-39  0.3014014178E-39 -0.2814945096E-38
11 -0.3260986557E-40  0.8757092959E-40 -0.1778617166E-40 -0.8566343549E-40 -0.1548369575E-39  0.2209066269E-34 -0.9603215743E-37 -0.5249644693E-34 -0.3351799982E-34  0.7447801554E-37  0.0000000000E+00 -0.9603215743E-37  0.3148393460E-36  0.2209066269E-34  0.2209350632E-34 -0.9569486343E-37 -0.2843632391E-38 -0.3372940039E-39 -0.5250282070E-34 -0.3352712729E-34  0.7419216662E-37  0.6373765568E-38  0.9127473522E-38  0.2858489201E-39 -0.9569486343E-37  0.3145285920E-36  0.2209350632E-34 -0.3372940039E-39  0.3107540081E-39 -0.2843632391E-38
12 -0.3913134515E-40  0.7753589719E-40 -0.1650218418E-40 -0.5650081485E-40 -0.1488327309E-39  0.2228685392E-34 -0.7976764417E-37 -0.5293990119E-34 -0.3349464038E-34  0.2608140643E-37  0.0000000000E+00 -0.7976764417E-37  0.3138952609E-36  0.2228685392E-34  0.2228972038E-34 -0.7931526253E-37 -0.2866460931E-38 -0.4523816385E-39 -0.5294633179E-34 -0.3350365891E-34  0.2608242148E-37  0.6430602576E-38  0.9018530931E-38 -0.1015049682E-41 -0.7931526253E-37  0.3135782611E-36  0.2228972038E-34 -0.4523816385E-39  0.3169997921E-39 -0.2866460931E-38
13 -0.3063200127E-40  0.7680903705E-40 -0.1326424277E-40 -0.4357233796E-40 -0.1179274422E-39  0.2224299716E-34 -0.6386719573E-37 -0.5277738244E-34 -0.3328448294E-34 -0.3091571634E-37  0.0000000000E+00 -0.6386719573E-37  0.3101731198E-36  0.2224299716E-34  0.2224586452E-34 -0.6329177207E-37 -0.2867361643E-38 -0.5754236519E-39 -0.5278382038E-34 -0.3329332303E-34 -0.3059851634E-37  0.6437935075E-38  0.8840093400E-38 -0.3172000012E-39 -0.6329177207E-37  0.3098516504E-36  0.2224586452E-34 -0.5754236519E-39  0.3214694636E-39 -0.2867361643E-38
14 -0.1682401329E-40  0.8113302436E-40 -0.9572531075E-41 -0.4177640065E-40 -0.9208650017E-40  0.2216308953E-34 -0.4943556997E-37 -0.5251031773E-34 -0.3321392541E-34 -0.9256325510E-37  0.0000000000E+00 -0.4943556997E-37  0.3051568946E-36  0.2216308953E-34  0.2216594177E-34 -0.4874331236E-37 -0.2852235605E-38 -0.6922576119E-39 -0.5251672517E-34 -0.3322256477E-34 -0.9193985842E-37  0.6407434836E-38  0.8639367673E-38 -0.6233966794E-39 -0.4874331236E-37  0.3048318694E-36  0.2216594177E-34 -0.6922576119E-39  0.3250251984E-39 -0.2852235605E-38
15 -0.4587183536E-41  0.8700575079E-40 -0.6374946540E-41 -0.4200738189E-40 -0.7776024546E-40  0.2214039886E-34 -0.3645312371E-37 -0.5237033711E-34 -0.3334085643E-34 -0.1549078729E-36  0.0000000000E+00 -0.3645312371E-37  0.2997430937E-36  0.2214039886E-34  0.2214323087E-34 -0.3565430584E-37 -0.2832006943E-38 -0.7988178731E-39 -0.5237670088E-34 -0.3334931025E-34 -0.1540010912E-36  0.6363771989E-38  0.8453812955E-38 -0.9067817247E-39 -0.3565430584E-37  0.2994149938E-36  0.2214323087E-34 -0.7988178731E-39  0.3280999314E-39 -0.2832006943E-38
16  0.2980516107E-41  0.9132435249E-40 -0.4055457145E-41 -0.3946449572E-40 -0.7257122751E-40  0.2217553132E-34 -0.2482389202E-37 -0.5237336075E-34 -0.3357349118E-34 -0.2165747849E-36  0.0000000000E+00 -0.2482389202E-37  0.2942389836E-36  0.2217553132E-34  0.2217834543E-34 -0.2392859388E-37 -0.2814110272E-38 -0.8952981452E-39 -0.5237968506E-34 -0.3358178679E-34 -0.2154078948E-36  0.6324303421E-38  0.8295604078E-38 -0.1166890107E-38 -0.2392859388E-37  0.2939082297E-36  0.2217834543E-34 -0.8952981452E-39  0.3307538966E-39 -0.2814110272E-38
17  0.6115183819E-41  0.9270725109E-40 -0.2215354755E-41 -0.3428332972E-40 -0.7069594282E-40  0.2223990433E-34 -0.1421988465E-37 -0.5245461476E-34 -0.3381884496E-34 -0.2757676069E-36  0.0000000000E+00 -0.1421988465E-37  0.2887339455E-36  0.2223990433E-34  0.2224270541E-34 -0.1323518625E-37 -0.2801083315E-38 -0.9846984083E-39 -0.5246091014E-34 -0.3382700939E-34 -0.2743569817E-36  0.6295378502E-38  0.8164429205E-38 -0.1410625137E-38 -0.1323518625E-37  0.2884010889E-36  0.2224270541E-34 -0.9846984083E-39  0.3328565791E-39 -0.2801083315E-38
18  0.7048469242E-41  0.9208287686E-40 -0.4229700183E-42 -0.2767332089E-40 -0.6881494454E-40  0.2231016197E-34 -0.4574334548E-38 -0.5255832890E-34 -0.3404193079E-34 -0.3322157571E-36  0.0000000000E+00 -0.4574334548E-38  0.2832282092E-36  0.2231016197E-34  0.2231295442E-34 -0.3506369211E-38 -0.2792448218E-38 -0.1067965338E-38 -0.5256460505E-34 -0.3404998392E-34 -0.3305755775E-36  0.6276152989E-38  0.8053123140E-38 -0.1640179617E-38 -0.3506369211E-38  0.2828936409E-36  0.2231295442E-34 -0.1067965338E-38  0.3345683283E-39 -0.2792448218E-38
19  0.7652165356E-41  0.9055058751E-40  0.1271731198E-41 -0.2141691790E-40 -0.6497903916E-40  0.2237291652E-34  0.4261971101E-38 -0.5265163636E-34 -0.3423152676E-34 -0.3850990410E-36  0.0000000000E+00  0.4261971101E-38  0.2777705163E-36  0.2237291652E-34  0.2237570318E-34  0.5408570257E-38 -0.2786660784E-38 -0.1146599155E-38 -0.5265789973E-34 -0.3423948319E-34 -0.3832403606E-36  0.6263366879E-38  0.7956432862E-38 -0.1858680406E-38  0.5408570257E-38  0.2774346011E-36  0.2237570318E-34 -0.1146599155E-38  0.3359152761E-39 -0.2786660784E-38
20  0.8509002614E-41  0.8842403113E-40  0.2801181527E-41 -0.1621431346E-40 -0.5990605181E-40  0.2242064701E-34  0.1226871890E-37 -0.5271410963E-34 -0.3438138948E-34 -0.4345481882E-36  0.0000000000E+00  0.1226871890E-37  0.2724193721E-36  0.2242064701E-34  0.2242342932E-34  0.1348983696E-37 -0.2782309888E-38 -0.1221118058E-38 -0.5272036342E-34 -0.3438925917E-34 -0.4324809713E-36  0.6253789283E-38  0.7869683196E-38 -0.2067216898E-38  0.1348983696E-37  0.2720823317E-36  0.2242342932E-34 -0.1221118058E-38  0.3370404219E-39 -0.2782309888E-38
21  0.9370048446E-41  0.8603595373E-40  0.4228641102E-41 -0.1181573234E-40 -0.5475792944E-40  0.2246164822E-34  0.1952762086E-37 -0.5276882015E-34 -0.3452344647E-34 -0.4801948929E-36  0.0000000000E+00  0.1952762086E-37  0.2672602249E-36  0.2246164822E-34  0.2246442692E-34  0.2081865079E-37 -0.2778701512E-38 -0.1291029929E-38 -0.5277506616E-34 -0.3453123846E-34 -0.4779307829E-36  0.6246014451E-38  0.7791987167E-38 -0.2264109972E-38  0.2081865079E-37  0.2669224487E-36  0.2246442692E-34 -0.1291029929E-38  0.3377761884E-39 -0.2778701512E-38
22  0.1040607725E-40  0.8339396731E-40  0.5500689832E-41 -0.8047504634E-41 -0.4912203085E-40  0.2249712863E-34  0.2603425904E-37 -0.5281623271E-34 -0.3465838943E-34 -0.5222804972E-36  0.0000000000E+00  0.2603425904E-37  0.2623505832E-36  0.2249712863E-34  0.2249990413E-34  0.2739064243E-37 -0.2775499420E-38 -0.1356383392E-38 -0.5282247190E-34 -0.3466611153E-34 -0.5198310159E-36  0.6239191675E-38  0.7722107681E-38 -0.2449481335E-38  0.2739064243E-37  0.2620124081E-36  0.2249990413E-34 -0.1356383392E-38  0.3381751231E-39 -0.2775499420E-38
23  0.1130232755E-40  0.8055318545E-40  0.6577954522E-41 -0.4825692581E-41 -0.4331782648E-40  0.2253060415E-34  0.3183243140E-37 -0.5286373260E-34 -0.3479191679E-34 -0.5607887931E-36  0.0000000000E+00  0.3183243140E-37  0.2577607090E-36  0.2253060415E-34  0.2253337679E-34  0.3324945842E-37 -0.2772645445E-38 -0.1417027016E-38 -0.5286996574E-34 -0.3479957668E-34 -0.5581660010E-36  0.6233143035E-38  0.7659892524E-38 -0.2622792005E-38  0.3324945842E-37  0.2574224172E-36  0.2253337679E-34 -0.1417027016E-38  0.3382917924E-39 -0.2772645445E-38
24  0.1196031554E-40  0.7754951926E-40  0.7489086573E-41 -0.2089351235E-41 -0.3750515087E-40  0.2256446135E-34  0.3697702265E-37 -0.5291691295E-34 -0.3492640520E-34 -0.5957950592E-36  0.0000000000E+00  0.3697702265E-37  0.2535348425E-36  0.2256446135E-34  0.2256723157E-34  0.3844971317E-37 -0.2770214382E-38 -0.1472690524E-38 -0.5292314098E-34 -0.3493401030E-34 -0.5930117650E-36  0.6228032058E-38  0.7605096304E-38 -0.2783294187E-38  0.3844971317E-37  0.2531966919E-36  0.2256723157E-34 -0.1472690524E-38  0.3381506873E-39 -0.2770214382E-38
25  0.1225403974E-40  0.7450280248E-40  0.8259897124E-41  0.1263310441E-42 -0.3206043742E-40  0.2259804798E-34  0.4155586548E-37 -0.5297256566E-34 -0.3505725134E-34 -0.6273683963E-36  0.0000000000E+00  0.4155586548E-37  0.2496683509E-36  0.2259804798E-34  0.2260081622E-34  0.4307978620E-37 -0.2768240343E-38 -0.1523920722E-38 -0.5297878959E-34 -0.3506480860E-34 -0.6244362682E-36  0.6223926525E-38  0.7557261329E-38 -0.2932128093E-38  0.4307978620E-37  0.2493305330E-36  0.2260081622E-34 -0.1523920722E-38  0.3378178761E-39 -0.2768240343E-38
26  0.1233655071E-40  0.7123322448E-40  0.8859025856E-41  0.2003281953E-41 -0.2669535198E-40  0.2262999349E-34  0.4555805556E-37 -0.5302765350E-34 -0.3518123524E-34 -0.6558790803E-36  0.0000000000E+00  0.4555805556E-37  0.2461629408E-36  0.2262999349E-34  0.2263276015E-34  0.4712900182E-37 -0.2766655802E-38 -0.1570946259E-38 -0.5303387416E-34 -0.3518875054E-34 -0.6528093941E-36  0.6220664268E-38  0.7515298664E-38 -0.3069686184E-38  0.4712900182E-37  0.2458256064E-36  0.2263276015E-34 -0.1570946259E-38  0.3373343230E-39 -0.2766655802E-38
27  0.1224161518E-40  0.6786692498E-40  0.9321550934E-41  0.3586098980E-41 -0.2129584725E-40  0.2266160741E-34  0.4902959646E-37 -0.5308516017E-34 -0.3530211316E-34 -0.6812538697E-36  0.0000000000E+00  0.4902959646E-37  0.2430481019E-36  0.2266160741E-34  0.2266437281E-34  0.5064345364E-37 -0.2765407924E-38 -0.1613857182E-38 -0.5309137831E-34 -0.3530959221E-34 -0.6780578035E-36  0.6218139873E-38  0.7479046006E-38 -0.3196066180E-38  0.5064345364E-37  0.2427113642E-36  0.2266437281E-34 -0.1613857182E-38  0.3367376860E-39 -0.2765407924E-38
28  0.1197420012E-40  0.6441769754E-40  0.9661101876E-41  0.4883332916E-41 -0.1604090222E-40  0.2269338624E-34  0.5203108350E-37 -0.5314609767E-34 -0.3542044598E-34 -0.7036035366E-36  0.0000000000E+00  0.5203108350E-37  0.2403168667E-36  0.2269338624E-34  0.2269615072E-34  0.5368384255E-37 -0.2764479579E-38 -0.1652759057E-38 -0.5315231400E-34 -0.3542789411E-34 -0.7002920393E-36  0.6216324463E-38  0.7448131009E-38 -0.3311497237E-38  0.5368384255E-37  0.2399808186E-36  0.2269615072E-34 -0.1652759057E-38  0.3360480359E-39 -0.2764479579E-38
29  0.1145844121E-40  0.6091879422E-40  0.9895904055E-41  0.5873860227E-41 -0.1128568329E-40  0.2272432685E-34  0.5463293998E-37 -0.5320740835E-34 -0.3553275139E-34 -0.7231457068E-36  0.0000000000E+00  0.5463293998E-37  0.2379307195E-36  0.2272432685E-34  0.2272709068E-34  0.5632101042E-37 -0.2763826973E-38 -0.1688070443E-38 -0.5321362347E-34 -0.3554017332E-34 -0.7197287736E-36  0.6215114517E-38  0.7421929223E-38 -0.3416933224E-38  0.5632101042E-37  0.2375954190E-36  0.2272709068E-34 -0.1688070443E-38  0.3353004295E-39 -0.2763826973E-38
30  0.1077630052E-40  0.5736553308E-40  0.1003392164E-40  0.6644579362E-41 -0.6932785887E-41  0.2275342463E-34  0.5686216798E-37 -0.5326658604E-34 -0.3563731687E-34 -0.7402460205E-36  0.0000000000E+00  0.5686216798E-37  0.2358531463E-36  0.2275342463E-34  0.2275618801E-34  0.5858227502E-37 -0.2763376000E-38 -0.1720107034E-38 -0.5327280039E-34 -0.3564471647E-34 -0.7367328726E-36  0.6214342003E-38  0.7399595718E-38 -0.3513147863E-38  0.5858227502E-37  0.2355186295E-36  0.2275618801E-34 -0.1720107034E-38  0.3345168977E-39 -0.2763376000E-38
31  0.9972384484E-41  0.5381457626E-40  0.1008438487E-40  0.7219767819E-41 -0.2957508442E-41  0.2278089121E-34  0.5876412733E-37 -0.5332390437E-34 -0.3573544827E-34 -0.7550733030E-36  0.0000000000E+00  0.5876412733E-37  0.2340629142E-36  0.2278089121E-34  0.2278365428E-34  0.6051320919E-37 -0.2763068360E-38 -0.1749081863E-38 -0.5333011825E-34 -0.3574282897E-34 -0.7514726276E-36  0.6213882014E-38  0.7380697237E-38 -0.3600675411E-38  0.6051320919E-37  0.2337291991E-36  0.2278365428E-34 -0.1749081863E-38  0.3337151421E-39 -0.2763068360E-38
32  0.9087944850E-41  0.5030338481E-40  0.1004997671E-40  0.7614819153E-41  0.5774428054E-42  0.2280681422E-34  0.6038517254E-37 -0.5337927930E-34 -0.3582783274E-34 -0.7678598738E-36  0.0000000000E+00  0.6038517254E-37  0.2325285059E-36  0.2280681422E-34  0.2280957709E-34  0.6216043125E-37 -0.2762871621E-38 -0.1775258713E-38 -0.5338549297E-34 -0.3583519754E-34 -0.7641797272E-36  0.6213664978E-38  0.7364797998E-38 -0.3680146603E-38  0.6216043125E-37  0.2321955994E-36  0.2280957709E-34 -0.1775258713E-38  0.3329064639E-39 -0.2762871621E-38
33  0.8141090253E-41  0.4697066991E-40  0.9927749999E-41  0.7706478292E-41  0.3606865845E-41  0.2282781523E-34  0.6177058017E-37 -0.5342618225E-34 -0.3590257294E-34 -0.7788564734E-36  0.0000000000E+00  0.6177058017E-37  0.2312120555E-36  0.2282781523E-34  0.2283057796E-34  0.6356983216E-37 -0.2762724681E-38 -0.1799251982E-38 -0.5343239585E-34 -0.3590992419E-34 -0.7751033952E-36  0.6213597070E-38  0.7351249587E-38 -0.3753078184E-38  0.6356983216E-37  0.2308800424E-36  0.2283057796E-34 -0.1799251982E-38  0.3320131206E-39 -0.2762724681E-38
34  0.7077862122E-41  0.4357385625E-40  0.9718283064E-41  0.7806279238E-41  0.5933451304E-41  0.2284864025E-34  0.6294755490E-37 -0.5347228507E-34 -0.3597764883E-34 -0.7883400234E-36  0.0000000000E+00  0.6294755490E-37  0.2300810912E-36  0.2284864025E-34  0.2285140291E-34  0.6476816343E-37 -0.2762662229E-38 -0.1820608528E-38 -0.5347849874E-34 -0.3598498872E-34 -0.7845214368E-36  0.6213665442E-38  0.7339895739E-38 -0.3818586580E-38  0.6476816343E-37  0.2297499111E-36  0.2285140291E-34 -0.1820608528E-38  0.3311800869E-39 -0.2762662229E-38
35  0.6172836416E-41  0.4021039987E-40  0.9464512951E-41  0.7843639207E-41  0.8013858834E-41  0.2286811984E-34  0.6394580655E-37 -0.5351589594E-34 -0.3604805645E-34 -0.7964850808E-36  0.0000000000E+00  0.6394580655E-37  0.2291134184E-36  0.2286811984E-34  0.2287088248E-34  0.6578546656E-37 -0.2762642264E-38 -0.1839660011E-38 -0.5352210974E-34 -0.3605538683E-34 -0.7926076748E-36  0.6213803571E-38  0.7330374842E-38 -0.3877405993E-38  0.6578546656E-37  0.2287830249E-36  0.2287088248E-34 -0.1839660011E-38  0.3303935038E-39 -0.2762642264E-38
36  0.5370418049E-41  0.3703124888E-40  0.9163517038E-41  0.7755094814E-41  0.9739987352E-41  0.2288586302E-34  0.6479207834E-37 -0.5355607924E-34 -0.3611238012E-34 -0.8034545780E-36  0.0000000000E+00  0.6479207834E-37  0.2282879860E-36  0.2288586302E-34  0.2288862567E-34  0.6664872643E-37 -0.2762645386E-38 -0.1856648084E-38 -0.5356229323E-34 -0.3611970249E-34 -0.7995244223E-36  0.6213985959E-38  0.7322377226E-38 -0.3930155699E-38  0.6664872643E-37  0.2279583365E-36  0.2288862567E-34 -0.1856648084E-38  0.3296495735E-39 -0.2762645386E-38
37  0.4635390757E-41  0.3401773867E-40  0.8820214253E-41  0.7546138321E-41  0.1100413406E-40  0.2290176645E-34  0.6551097353E-37 -0.5359237714E-34 -0.3617038639E-34 -0.8094003146E-36  0.0000000000E+00  0.6551097353E-37  0.2275840239E-36  0.2290176645E-34  0.2290452911E-34  0.6738275563E-37 -0.2762668906E-38 -0.1871782094E-38 -0.5359859135E-34 -0.3617770207E-34 -0.8054229500E-36  0.6214203147E-38  0.7315673558E-38 -0.3977364586E-38  0.6738275563E-37  0.2272550684E-36  0.2290452911E-34 -0.1871782094E-38  0.3289555057E-39 -0.2762668906E-38
38  0.3965192831E-41  0.3114485399E-40  0.8441568030E-41  0.7252943559E-41  0.1183258631E-40  0.2291586344E-34  0.6611911364E-37 -0.5362475766E-34 -0.3622235698E-34 -0.8144780813E-36  0.0000000000E+00  0.6611911364E-37  0.2269835288E-36  0.2291586344E-34  0.2291862615E-34  0.6800435016E-37 -0.2762709705E-38 -0.1885236520E-38 -0.5363097210E-34 -0.3622966704E-34 -0.8104585753E-36  0.6214443323E-38  0.7310056089E-38 -0.4019505987E-38  0.6800435016E-37  0.2266552144E-36  0.2291862615E-34 -0.1885236520E-38  0.3283143883E-39 -0.2762709705E-38
39  0.3368402452E-41  0.2840722972E-40  0.8036981193E-41  0.6899457375E-41  0.1227931219E-40  0.2292831895E-34  0.6663246799E-37 -0.5365354703E-34 -0.3626879312E-34 -0.8187979452E-36  0.0000000000E+00  0.6663246799E-37  0.2264733062E-36  0.2292831895E-34  0.2293108171E-34  0.6852962983E-37 -0.2762762595E-38 -0.1897161836E-38 -0.5365976172E-34 -0.3627609849E-34 -0.8147409408E-36  0.6214693095E-38  0.7305375431E-38 -0.4057004394E-38  0.6852962983E-37  0.2261455794E-36  0.2293108171E-34 -0.1897161836E-38  0.3277268362E-39 -0.2762762595E-38
40  0.2851080180E-41  0.2581043396E-40  0.7614121389E-41  0.6503431688E-41  0.1240589241E-40  0.2293929300E-34  0.6706507331E-37 -0.5367907270E-34 -0.3631011925E-34 -0.8224594293E-36  0.0000000000E+00  0.6706507331E-37  0.2260412072E-36  0.2293929300E-34  0.2294205583E-34  0.6897277392E-37 -0.2762823490E-38 -0.1907700612E-38 -0.5368528764E-34 -0.3631742074E-34 -0.8183691596E-36  0.6214944005E-38  0.7301494558E-38 -0.4090269675E-38  0.6897277392E-37  0.2257140150E-36  0.2294205583E-34 -0.1907700612E-38  0.3271921883E-39 -0.2762823490E-38
41  0.2411498112E-41  0.2336078468E-40  0.7179819352E-41  0.6079206474E-41  0.1226591849E-40  0.2294893196E-34  0.6742885848E-37 -0.5370163699E-34 -0.3634673997E-34 -0.8255530415E-36  0.0000000000E+00  0.6742885848E-37  0.2256762988E-36  0.2294893196E-34  0.2295169485E-34  0.6934584706E-37 -0.2762888653E-38 -0.1916988572E-38 -0.5370785218E-34 -0.3635403826E-34 -0.8214333467E-36  0.6215189345E-38  0.7298288055E-38 -0.4119694761E-38  0.6934584706E-37  0.2253495897E-36  0.2295169485E-34 -0.1916988572E-38  0.3267091369E-39 -0.2762888653E-38
42  0.2037773749E-41  0.2110551986E-40  0.6739592637E-41  0.5638859955E-41  0.1191047962E-40  0.2295738262E-34  0.6773383822E-37 -0.5372155041E-34 -0.3637924837E-34 -0.8281591670E-36  0.0000000000E+00  0.6773383822E-37  0.2253691374E-36  0.2295738262E-34  0.2296014557E-34  0.6965902669E-37 -0.2762953009E-38 -0.1925188465E-38 -0.5372776583E-34 -0.3638654401E-34 -0.8240133883E-36  0.6215417876E-38  0.7295645564E-38 -0.4145778645E-38  0.6965902669E-37  0.2250428634E-36  0.2296014557E-34 -0.1925188465E-38  0.3262740559E-39 -0.2762953009E-38
43  0.1728634663E-41  0.1896327861E-40  0.6295317970E-41  0.5191472568E-41  0.1135797599E-40  0.2296483059E-34  0.6798927240E-37 -0.5373924875E-34 -0.3640797189E-34 -0.8303457036E-36  0.0000000000E+00  0.6798927240E-37  0.2251112779E-36  0.2296483059E-34  0.2296759361E-34  0.6992164800E-37 -0.2763016056E-38 -0.1932375602E-38 -0.5374546438E-34 -0.3641526536E-34 -0.8261769845E-36  0.6215631735E-38  0.7293474193E-38 -0.4168719129E-38  0.6992164800E-37  0.2247853919E-36  0.2296759361E-34 -0.1932375602E-38  0.3258859894E-39 -0.2763016056E-38
44  0.1470637485E-41  0.1697873790E-40  0.5855915879E-41  0.4748339973E-41  0.1069090788E-40  0.2297134446E-34  0.6820207758E-37 -0.5375483864E-34 -0.3643322474E-34 -0.8321784023E-36  0.0000000000E+00  0.6820207758E-37  0.2248952377E-36  0.2297134446E-34  0.2297410753E-34  0.7014074063E-37 -0.2763076885E-38 -0.1938663051E-38 -0.5376105447E-34 -0.3644051643E-34 -0.8279895521E-36  0.6215830795E-38  0.7291693471E-38 -0.4188850181E-38  0.7014074063E-37  0.2245696953E-36  0.2297410753E-34 -0.1938663051E-38  0.3255424089E-39 -0.2763076885E-38
45  0.1258355620E-41  0.1515070418E-40  0.5426174370E-41  0.4316543504E-41  0.9942971429E-41  0.2297703877E-34  0.6837873637E-37 -0.5376856359E-34 -0.3645545080E-34 -0.8337078484E-36  0.0000000000E+00  0.6837873637E-37  0.2247150583E-36  0.2297703877E-34  0.2297980190E-34  0.7032288621E-37 -0.2763134466E-38 -0.1944149845E-38 -0.5377477961E-34 -0.3646274105E-34 -0.8295013794E-36  0.6216013972E-38  0.7290243277E-38 -0.4206469056E-38  0.7032288621E-37  0.2243898182E-36  0.2297980190E-34 -0.1944149845E-38  0.3252400510E-39 -0.2763134466E-38
46  0.1083020134E-41  0.1347724955E-40  0.5008096941E-41  0.3901711807E-41  0.9141941634E-41  0.2298202307E-34  0.6852497499E-37 -0.5378066501E-34 -0.3647502937E-34 -0.8349794421E-36  0.0000000000E+00  0.6852497499E-37  0.2245653131E-36  0.2298202307E-34  0.2298478626E-34  0.7047390067E-37 -0.2763188441E-38 -0.1948925688E-38 -0.5378688119E-34 -0.3648231844E-34 -0.8307575943E-36  0.6216181610E-38  0.7289070578E-38 -0.4221847783E-38  0.7047390067E-37  0.2242403378E-36  0.2298478626E-34 -0.1948925688E-38  0.3249753010E-39 -0.2763188441E-38
47  0.9368487041E-42  0.1195491597E-40  0.4603392737E-41  0.3507598087E-41  0.8315469452E-41  0.2298638695E-34  0.6864571914E-37 -0.5379133789E-34 -0.3649226128E-34 -0.8360338382E-36  0.0000000000E+00  0.6864571914E-37  0.2244411608E-36  0.2298638695E-34  0.2298915019E-34  0.7059879167E-37 -0.2763238560E-38 -0.1953072528E-38 -0.5379755422E-34 -0.3649954941E-34 -0.8317986019E-36  0.6216334192E-38  0.7288127630E-38 -0.4235236291E-38  0.7059879167E-37  0.2241164162E-36  0.2298915019E-34 -0.1953072528E-38  0.3247445817E-39 -0.2763238560E-38
48  0.8145473689E-42  0.1057882351E-40  0.4213799813E-41  0.3136770987E-41  0.7490610805E-41  0.2299020594E-34  0.6874515221E-37 -0.5380074328E-34 -0.3650740570E-34 -0.8369066813E-36  0.0000000000E+00  0.6874515221E-37  0.2243384113E-36  0.2299020594E-34  0.2299296922E-34  0.7070181716E-37 -0.2763284540E-38 -0.1956664946E-38 -0.5380695975E-34 -0.3651469307E-34 -0.8326598166E-36  0.6216471920E-38  0.7287372575E-38 -0.4246864722E-38  0.7070181716E-37  0.2240138670E-36  0.2299296922E-34 -0.1956664946E-38  0.3245442926E-39 -0.2763284540E-38
49  0.7124896952E-42  0.9342744795E-41  0.3840912474E-41  0.2790802133E-41  0.6689622624E-41  0.2299354266E-34  0.6882695195E-37 -0.5380901618E-34 -0.3652068394E-34 -0.8376279667E-36  0.0000000000E+00  0.6882695195E-37  0.2242534598E-36  0.2299354266E-34  0.2299630599E-34  0.7078672264E-37 -0.2763326160E-38 -0.1959770687E-38 -0.5381523278E-34 -0.3652797071E-34 -0.8333710267E-36  0.6216594879E-38  0.7286769804E-38 -0.4256939919E-38  0.7078672264E-37  0.2239290883E-36  0.2299630599E-34 -0.1959770687E-38  0.3243714717E-39 -0.2763326160E-38
50  0.6276850299E-42  0.8239027213E-41  0.3485811263E-41  0.2471126442E-41  0.5930335313E-41  0.2299645439E-34  0.6889407541E-37 -0.5381628067E-34 -0.3653231053E-34 -0.8382243764E-36  0.0000000000E+00  0.6889407541E-37  0.2241832157E-36  0.2299645439E-34  0.2299921775E-34  0.7085652568E-37 -0.2763363471E-38 -0.1962450275E-38 -0.5382249737E-34 -0.3653959682E-34 -0.8339587269E-36  0.6216703858E-38  0.7286289408E-38 -0.4265649512E-38  0.7085652568E-37  0.2238589926E-36  0.2299921775E-34 -0.1962450275E-38  0.3242230791E-39 -0.2763363471E-38
51  0.5575675376E-42  0.7258689472E-41  0.3149414626E-41  0.2178188211E-41  0.5223777748E-41  0.2299899354E-34  0.6894910930E-37 -0.5382265194E-34 -0.3654247936E-34 -0.8387171182E-36  0.0000000000E+00  0.6894910930E-37  0.2241251790E-36  0.2299899354E-34  0.2300175694E-34  0.7091386691E-37 -0.2763396542E-38 -0.1964757605E-38 -0.5382886874E-34 -0.3654976527E-34 -0.8344439566E-36  0.6216799559E-38  0.7285907604E-38 -0.4273161555E-38  0.7091386691E-37  0.2238010827E-36  0.2300175694E-34 -0.1964757605E-38  0.3240962943E-39 -0.2763396542E-38
52  0.4994703833E-42  0.6391982400E-41  0.2832306753E-41  0.1911843950E-41  0.4575568314E-41  0.2300120545E-34  0.6899424867E-37 -0.5382823056E-34 -0.3655135864E-34 -0.8391242981E-36  0.0000000000E+00  0.6899424867E-37  0.2240772046E-36  0.2300120545E-34  0.2300396887E-34  0.7096098954E-37 -0.2763425564E-38 -0.1966740862E-38 -0.5383444744E-34 -0.3655864424E-34 -0.8348446711E-36  0.6216882863E-38  0.7285604373E-38 -0.4279627086E-38  0.7096098954E-37  0.2237532161E-36  0.2300396887E-34 -0.1966740862E-38  0.3239885092E-39 -0.2763425564E-38
53  0.4510682821E-42  0.5628704848E-41  0.2534900167E-41  0.1671308413E-41  0.3988017302E-41  0.2300312918E-34  0.6903132471E-37 -0.5383310438E-34 -0.3655909599E-34 -0.8394611711E-36  0.0000000000E+00  0.6903132471E-37  0.2240374844E-36  0.2300312918E-34  0.2300589263E-34  0.7099976768E-37 -0.2763450793E-38 -0.1968442965E-38 -0.5383932133E-34 -0.3656638136E-34 -0.8351759897E-36  0.6216954740E-38  0.7285363087E-38 -0.4285181358E-38  0.7099976768E-37  0.2237135871E-36  0.2300589263E-34 -0.1968442965E-38  0.3238973281E-39 -0.2763450793E-38
54  0.4104100712E-42  0.4958505702E-41  0.2257450695E-41  0.1455340224E-41  0.3461179018E-41  0.2300479938E-34  0.6906184890E-37 -0.5383735240E-34 -0.3656582451E-34 -0.8397404502E-36  0.0000000000E+00  0.6906184890E-37  0.2240045174E-36  0.2300479938E-34  0.2300756285E-34  0.7103175081E-37 -0.2763472524E-38 -0.1969901912E-38 -0.5384356942E-34 -0.3657310968E-34 -0.8354505050E-36  0.6217016230E-38  0.7285170243E-38 -0.4289945163E-38  0.7103175081E-37  0.2236806969E-36  0.2300756285E-34 -0.1969901912E-38  0.3238205374E-39 -0.2763472524E-38