TITLE="fun3d_case_title"
VARIABLES="Iteration" "R_1" "R_2" "R_3" "R_4" "R_5" "C_L" "C_D" "C_M_x" "C_M_y" "C_M_z" "Wall Time" "C_x" "C_y" "C_z" "C_Lp" "C_Dp" "C_Lv" "C_Dv" "C_M_xp" "C_M_yp" "C_M_zp" "C_M_xv" "C_M_yv" "C_M_zv" "C_xp" "C_yp" "C_zp" "C_xv" "C_yv" "C_zv"
ZONE  I=100 F=POINT
1  0.7628936378E-35  0.1086993684E-35  0.0000000000E+00  0.6053486690E-50  0.1195742925E-34  0.1421492236E-29 -0.2093529702E-45 -0.3555139832E-29 -0.2880203719E-29  0.6938878487E-46  0.0000000000E+00  0.1619996026E-46  0.9352832856E-47  0.1421492236E-29  0.1421492236E-29 -0.2093529702E-45  0.0000000000E+00  0.0000000000E+00 -0.3555139832E-29 -0.2880203719E-29  0.6938878487E-46  0.0000000000E+00  0.0000000000E+00  0.0000000000E+00  0.1619996026E-46  0.9352832856E-47  0.1421492236E-29  0.0000000000E+00  0.0000000000E+00  0.0000000000E+00
2 -0.1191138910E-34 -0.4520730179E-35  0.1406725010E-36 -0.1306699062E-36 -0.3096807330E-34  0.1206504090E-29 -0.2023560544E-36 -0.3015281339E-29 -0.2152695735E-29 -0.9787171754E-36  0.0000000000E+00 -0.2116987355E-36 -0.2627566477E-36  0.1206504090E-29  0.1206504090E-29 -0.2023560544E-36  0.0000000000E+00  0.0000000000E+00 -0.3015281339E-29 -0.2152695735E-29 -0.9787171754E-36  0.0000000000E+00  0.0000000000E+00  0.0000000000E+00 -0.2116987355E-36 -0.2627566477E-36  0.1206504090E-29  0.0000000000E+00  0.0000000000E+00  0.0000000000E+00
3  0.3565186458E-35 -0.1420292125E-35 -0.2873006078E-36 -0.9158899330E-35  0.7771895065E-35  0.1180404704E-29 -0.1890556467E-34 -0.2947057085E-29 -0.2146532202E-29 -0.9615225778E-34  0.0000000000E+00 -0.1982613369E-34 -0.2600380669E-34  0.1180404706E-29  0.1180404704E-29 -0.1890556467E-34  0.0000000000E+00  0.0000000000E+00 -0.2947057085E-29 -0.2146532202E-29 -0.9615225778E-34  0.0000000000E+00  0.0000000000E+00  0.0000000000E+00 -0.1982613369E-34 -0.2600380669E-34  0.1180404706E-29  0.0000000000E+00  0.0000000000E+00  0.0000000000E+00
4  0.2011187945E-36 -0.8801300879E-35 -0.1444567425E-36 -0.1516188322E-35  0.3724389105E-36  0.1199730386E-29 -0.1116710075E-34 -0.2995475813E-29 -0.2251766356E-29 -0.9838548873E-34  0.0000000000E+00 -0.1919393164E-34 -0.2687130736E-34  0.1199730387E-29  0.1199730386E-29 -0.1116710075E-34  0.0000000000E+00  0.0000000000E+00 -0.2995475813E-29 -0.2251766356E-29 -0.9838548873E-34  0.0000000000E+00  0.0000000000E+00  0.0000000000E+00 -0.1919393164E-34 -0.2687130736E-34  0.1199730387E-29  0.0000000000E+00  0.0000000000E+00  0.0000000000E+00
5 -0.6790985414E-36 -0.7171102629E-35 -0.2519244318E-36 -0.1682563726E-35 -0.1618748483E-35  0.1214723054E-29 -0.1149534593E-34 -0.3033005486E-29 -0.2314326486E-29 -0.9951975730E-34  0.0000000000E+00 -0.1884348482E-34 -0.2739907546E-34  0.1214723055E-29  0.1214723054E-29 -0.1149534593E-34  0.0000000000E+00  0.0000000000E+00 -0.3033005486E-29 -0.2314326486E-29 -0.9951975730E-34  0.0000000000E+00  0.0000000000E+00  0.0000000000E+00 -0.1884348482E-34 -0.2739907546E-34  0.1214723055E-29  0.0000000000E+00  0.0000000000E+00  0.0000000000E+00
6 -0.8330150302E-36 -0.6859208514E-35 -0.2594079671E-36 -0.2215720757E-35 -0.2757635034E-35  0.1221640362E-29 -0.1281952450E-34 -0.3050347168E-29 -0.2340242151E-29 -0.9984546435E-34  0.0000000000E+00 -0.1865407723E-34 -0.2760879800E-34  0.1221640362E-29  0.1221640362E-29 -0.1281952450E-34  0.0000000000E+00  0.0000000000E+00 -0.3050347168E-29 -0.2340242151E-29 -0.9984546435E-34  0.0000000000E+00  0.0000000000E+00  0.0000000000E+00 -0.1865407723E-34 -0.2760879800E-34  0.1221640362E-29  0.0000000000E+00  0.0000000000E+00  0.0000000000E+00
7 -0.6085307761E-36 -0.5821543060E-35 -0.2025139510E-36 -0.2275643196E-35 -0.2853192246E-35  0.1223882722E-29 -0.1340982700E-34 -0.3056064428E-29 -0.2349026263E-29 -0.9987988256E-34  0.0000000000E+00 -0.1855841527E-34 -0.2766826551E-34  0.1223882723E-29  0.1223882722E-29 -0.1340982700E-34  0.0000000000E+00  0.0000000000E+00 -0.3056064428E-29 -0.2349026263E-29 -0.9987988256E-34  0.0000000000E+00  0.0000000000E+00  0.0000000000E+00 -0.1855841527E-34 -0.2766826551E-34  0.1223882723E-29  0.0000000000E+00  0.0000000000E+00  0.0000000000E+00
8 -0.6541313958E-36 -0.4814127384E-35 -0.2082055013E-36 -0.2020012881E-35 -0.3343732511E-35  0.1224498059E-29 -0.1352550570E-34 -0.3057735102E-29 -0.2352675423E-29 -0.9986311535E-34  0.0000000000E+00 -0.1850551589E-34 -0.2768395290E-34  0.1224498060E-29  0.1224498059E-29 -0.1352550570E-34  0.0000000000E+00  0.0000000000E+00 -0.3057735102E-29 -0.2352675423E-29 -0.9986311535E-34  0.0000000000E+00  0.0000000000E+00  0.0000000000E+00 -0.1850551589E-34 -0.2768395290E-34  0.1224498060E-29  0.0000000000E+00  0.0000000000E+00  0.0000000000E+00
9 -0.5552108499E-36 -0.4037445068E-35 -0.2102104783E-36 -0.1622594244E-35 -0.2945659135E-35  0.1224951846E-29 -0.1349940487E-34 -0.3058976942E-29 -0.2355948149E-29 -0.9986273700E-34  0.0000000000E+00 -0.1846398101E-34 -0.2769880755E-34  0.1224951846E-29  0.1224951846E-29 -0.1349940487E-34  0.0000000000E+00  0.0000000000E+00 -0.3058976942E-29 -0.2355948149E-29 -0.9986273700E-34  0.0000000000E+00  0.0000000000E+00  0.0000000000E+00 -0.1846398101E-34 -0.2769880755E-34  0.1224951846E-29  0.0000000000E+00  0.0000000000E+00  0.0000000000E+00
10 -0.4369608710E-36 -0.3355562632E-35 -0.1893752109E-36 -0.1264682069E-35 -0.2517756626E-35  0.1225577164E-29 -0.1346640326E-34 -0.3060605304E-29 -0.2359615172E-29 -0.9987783290E-34  0.0000000000E+00 -0.1842270652E-34 -0.2771980587E-34  0.1225577164E-29  0.1225577164E-29 -0.1346640326E-34  0.0000000000E+00  0.0000000000E+00 -0.3060605304E-29 -0.2359615172E-29 -0.9987783290E-34  0.0000000000E+00  0.0000000000E+00  0.0000000000E+00 -0.1842270652E-34 -0.2771980587E-34  0.1225577164E-29  0.0000000000E+00  0.0000000000E+00  0.0000000000E+00
11 -0.3882278415E-36 -0.2781862294E-35 -0.1773731219E-36 -0.9830050064E-36 -0.2266071489E-35  0.1226269989E-29 -0.1345069543E-34 -0.3062366291E-29 -0.2363141308E-29 -0.9989432680E-34  0.0000000000E+00 -0.1838304881E-34 -0.2774192094E-34  0.1226269990E-29  0.1226269989E-29 -0.1345069543E-34  0.0000000000E+00  0.0000000000E+00 -0.3062366291E-29 -0.2363141308E-29 -0.9989432680E-34  0.0000000000E+00  0.0000000000E+00  0.0000000000E+00 -0.1838304881E-34 -0.2774192094E-34  0.1226269990E-29  0.0000000000E+00  0.0000000000E+00  0.0000000000E+00
12 -0.3431594292E-36 -0.2331502947E-35 -0.1730900152E-36 -0.7537819841E-36 -0.1979639136E-35  0.1226884679E-29 -0.1344553444E-34 -0.3063913363E-29 -0.2366015019E-29 -0.9990350114E-34  0.0000000000E+00 -0.1834936729E-34 -0.2776016552E-34  0.1226884679E-29  0.1226884679E-29 -0.1344553444E-34  0.0000000000E+00  0.0000000000E+00 -0.3063913363E-29 -0.2366015019E-29 -0.9990350114E-34  0.0000000000E+00  0.0000000000E+00  0.0000000000E+00 -0.1834936729E-34 -0.2776016552E-34  0.1226884679E-29  0.0000000000E+00  0.0000000000E+00  0.0000000000E+00
13 -0.2911345879E-36 -0.1973097883E-35 -0.1653531329E-36 -0.5655221556E-36 -0.1671281763E-35  0.1227356621E-29 -0.1344332201E-34 -0.3065102097E-29 -0.2368104296E-29 -0.9990401751E-34  0.0000000000E+00 -0.1832376528E-34 -0.2777290242E-34  0.1227356621E-29  0.1227356621E-29 -0.1344332201E-34  0.0000000000E+00  0.0000000000E+00 -0.3065102097E-29 -0.2368104296E-29 -0.9990401751E-34  0.0000000000E+00  0.0000000000E+00  0.0000000000E+00 -0.1832376528E-34 -0.2777290242E-34  0.1227356621E-29  0.0000000000E+00  0.0000000000E+00  0.0000000000E+00
14 -0.2396812898E-36 -0.1687633772E-35 -0.1540252598E-36 -0.4119965614E-36 -0.1395952096E-35  0.1227694421E-29 -0.1344058949E-34 -0.3065963240E-29 -0.2369557359E-29 -0.9989897196E-34  0.0000000000E+00 -0.1830549487E-34 -0.2778108682E-34  0.1227694421E-29  0.1227694421E-29 -0.1344058949E-34  0.0000000000E+00  0.0000000000E+00 -0.3065963240E-29 -0.2369557359E-29 -0.9989897196E-34  0.0000000000E+00  0.0000000000E+00  0.0000000000E+00 -0.1830549487E-34 -0.2778108682E-34  0.1227694421E-29  0.0000000000E+00  0.0000000000E+00  0.0000000000E+00
15 -0.1926493754E-36 -0.1466048257E-35 -0.1414806638E-36 -0.2904054686E-36 -0.1173598771E-35  0.1227936988E-29 -0.1343667614E-34 -0.3066594655E-29 -0.2370600632E-29 -0.9989233756E-34  0.0000000000E+00 -0.1829247788E-34 -0.2778651241E-34  0.1227936988E-29  0.1227936988E-29 -0.1343667614E-34  0.0000000000E+00  0.0000000000E+00 -0.3066594655E-29 -0.2370600632E-29 -0.9989233756E-34  0.0000000000E+00  0.0000000000E+00  0.0000000000E+00 -0.1829247788E-34 -0.2778651241E-34  0.1227936988E-29  0.0000000000E+00  0.0000000000E+00  0.0000000000E+00
16 -0.1558504868E-36 -0.1295731837E-35 -0.1287211911E-36 -0.2011335503E-36 -0.1007492667E-35  0.1228120488E-29 -0.1343210807E-34 -0.3067082296E-29 -0.2371407399E-29 -0.9988668953E-34  0.0000000000E+00 -0.1828271645E-34 -0.2779059343E-34  0.1228120488E-29  0.1228120488E-29 -0.1343210807E-34  0.0000000000E+00  0.0000000000E+00 -0.3067082296E-29 -0.2371407399E-29 -0.9988668953E-34  0.0000000000E+00  0.0000000000E+00  0.0000000000E+00 -0.1828271645E-34 -0.2779059343E-34  0.1228120488E-29  0.0000000000E+00  0.0000000000E+00  0.0000000000E+00
17 -0.1300064120E-36 -0.1162486996E-35 -0.1165983736E-36 -0.1418070751E-36 -0.8859478831E-36  0.1228266455E-29 -0.1342755645E-34 -0.3067474766E-29 -0.2372067595E-29 -0.9988273262E-34  0.0000000000E+00 -0.1827486329E-34 -0.2779402367E-34  0.1228266456E-29  0.1228266455E-29 -0.1342755645E-34  0.0000000000E+00  0.0000000000E+00 -0.3067474766E-29 -0.2372067595E-29 -0.9988273262E-34  0.0000000000E+00  0.0000000000E+00  0.0000000000E+00 -0.1827486329E-34 -0.2779402367E-34  0.1228266456E-29  0.0000000000E+00  0.0000000000E+00  0.0000000000E+00
18 -0.1120562596E-36 -0.1054954811E-35 -0.1061437091E-36 -0.1052013503E-36 -0.7921087319E-36  0.1228384479E-29 -0.1342339682E-34 -0.3067792596E-29 -0.2372615560E-29 -0.9988001377E-34  0.0000000000E+00 -0.1826818377E-34 -0.2779698878E-34  0.1228384479E-29  0.1228384479E-29 -0.1342339682E-34  0.0000000000E+00  0.0000000000E+00 -0.3067792596E-29 -0.2372615560E-29 -0.9988001377E-34  0.0000000000E+00  0.0000000000E+00  0.0000000000E+00 -0.1826818377E-34 -0.2779698878E-34  0.1228384479E-29  0.0000000000E+00  0.0000000000E+00  0.0000000000E+00
19 -0.9904627621E-37 -0.9654488891E-36 -0.9805309091E-37 -0.8249639215E-37 -0.7141792478E-36  0.1228478936E-29 -0.1341970971E-34 -0.3068045615E-29 -0.2373065762E-29 -0.9987783038E-34  0.0000000000E+00 -0.1826232134E-34 -0.2779949099E-34  0.1228478936E-29  0.1228478936E-29 -0.1341970971E-34  0.0000000000E+00  0.0000000000E+00 -0.3068045615E-29 -0.2373065762E-29 -0.9987783038E-34  0.0000000000E+00  0.0000000000E+00  0.0000000000E+00 -0.1826232134E-34 -0.2779949099E-34  0.1228478936E-29  0.0000000000E+00  0.0000000000E+00  0.0000000000E+00
20 -0.8922206664E-37 -0.8888256662E-36 -0.9224249365E-37 -0.6718408048E-37 -0.6470794721E-36  0.1228553508E-29 -0.1341644895E-34 -0.3068243536E-29 -0.2373432506E-29 -0.9987574112E-34  0.0000000000E+00 -0.1825709877E-34 -0.2780154589E-34  0.1228553509E-29  0.1228553508E-29 -0.1341644895E-34  0.0000000000E+00  0.0000000000E+00 -0.3068243536E-29 -0.2373432506E-29 -0.9987574112E-34  0.0000000000E+00  0.0000000000E+00  0.0000000000E+00 -0.1825709877E-34 -0.2780154589E-34  0.1228553509E-29  0.0000000000E+00  0.0000000000E+00  0.0000000000E+00
21 -0.8160856586E-37 -0.8214144505E-36 -0.8790276997E-37 -0.5632922473E-37 -0.5890705616E-36  0.1228612403E-29 -0.1341356206E-34 -0.3068398063E-29 -0.2373733471E-29 -0.9987362969E-34  0.0000000000E+00 -0.1825240897E-34 -0.2780322691E-34  0.1228612403E-29  0.1228612403E-29 -0.1341356206E-34  0.0000000000E+00  0.0000000000E+00 -0.3068398063E-29 -0.2373733471E-29 -0.9987362969E-34  0.0000000000E+00  0.0000000000E+00  0.0000000000E+00 -0.1825240897E-34 -0.2780322691E-34  0.1228612403E-29  0.0000000000E+00  0.0000000000E+00  0.0000000000E+00
22 -0.7560352854E-37 -0.7605397990E-36 -0.8405224330E-37 -0.4910560503E-37 -0.5389971230E-36  0.1228659802E-29 -0.1341101266E-34 -0.3068520837E-29 -0.2373986062E-29 -0.9987155218E-34  0.0000000000E+00 -0.1824817117E-34 -0.2780463280E-34  0.1228659802E-29  0.1228659802E-29 -0.1341101266E-34  0.0000000000E+00  0.0000000000E+00 -0.3068520837E-29 -0.2373986062E-29 -0.9987155218E-34  0.0000000000E+00  0.0000000000E+00  0.0000000000E+00 -0.1824817117E-34 -0.2780463280E-34  0.1228659802E-29  0.0000000000E+00  0.0000000000E+00  0.0000000000E+00
23 -0.7080080339E-37 -0.7043712078E-36 -0.8008754602E-37 -0.4496925204E-37 -0.4956002887E-36  0.1228699113E-29 -0.1340875747E-34 -0.3068621281E-29 -0.2374203873E-29 -0.9986958559E-34  0.0000000000E+00 -0.1824431927E-34 -0.2780584846E-34  0.1228699113E-29  0.1228699113E-29 -0.1340875747E-34  0.0000000000E+00  0.0000000000E+00 -0.3068621281E-29 -0.2374203873E-29 -0.9986958559E-34  0.0000000000E+00  0.0000000000E+00  0.0000000000E+00 -0.1824431927E-34 -0.2780584846E-34  0.1228699113E-29  0.0000000000E+00  0.0000000000E+00  0.0000000000E+00
24 -0.6687669395E-37 -0.6517916080E-36 -0.7591263596E-37 -0.4304876811E-37 -0.4577090709E-36  0.1228732693E-29 -0.1340673381E-34 -0.3068705902E-29 -0.2374395754E-29 -0.9986776424E-34  0.0000000000E+00 -0.1824080157E-34 -0.2780692854E-34  0.1228732694E-29  0.1228732693E-29 -0.1340673381E-34  0.0000000000E+00  0.0000000000E+00 -0.3068705902E-29 -0.2374395754E-29 -0.9986776424E-34  0.0000000000E+00  0.0000000000E+00  0.0000000000E+00 -0.1824080157E-34 -0.2780692854E-34  0.1228732694E-29  0.0000000000E+00  0.0000000000E+00  0.0000000000E+00
25 -0.6352922824E-37 -0.6021787902E-36 -0.7171196283E-37 -0.4241555506E-37 -0.4243592154E-36  0.1228762005E-29 -0.1340487236E-34 -0.3068778763E-29 -0.2374566795E-29 -0.9986608612E-34  0.0000000000E+00 -0.1823758239E-34 -0.2780790086E-34  0.1228762006E-29  0.1228762005E-29 -0.1340487236E-34  0.0000000000E+00  0.0000000000E+00 -0.3068778763E-29 -0.2374566795E-29 -0.9986608612E-34  0.0000000000E+00  0.0000000000E+00  0.0000000000E+00 -0.1823758239E-34 -0.2780790086E-34  0.1228762006E-29  0.0000000000E+00  0.0000000000E+00  0.0000000000E+00
26 -0.6049347971E-37 -0.5551559461E-36 -0.6767365386E-37 -0.4238991012E-37 -0.3947118795E-36  0.1228787920E-29 -0.1340312161E-34 -0.3068842348E-29 -0.2374719874E-29 -0.9986454273E-34  0.0000000000E+00 -0.1823464136E-34 -0.2780877773E-34  0.1228787920E-29  0.1228787920E-29 -0.1340312161E-34  0.0000000000E+00  0.0000000000E+00 -0.3068842348E-29 -0.2374719874E-29 -0.9986454273E-34  0.0000000000E+00  0.0000000000E+00  0.0000000000E+00 -0.1823464136E-34 -0.2780877773E-34  0.1228787920E-29  0.0000000000E+00  0.0000000000E+00  0.0000000000E+00
27 -0.5758947683E-37 -0.5104147186E-36 -0.6385421095E-37 -0.4258362007E-37 -0.3679634207E-36  0.1228810974E-29 -0.1340146224E-34 -0.3068898244E-29 -0.2374856808E-29 -0.9986313697E-34  0.0000000000E+00 -0.1823196987E-34 -0.2780956522E-34  0.1228810974E-29  0.1228810974E-29 -0.1340146224E-34  0.0000000000E+00  0.0000000000E+00 -0.3068898244E-29 -0.2374856808E-29 -0.9986313697E-34  0.0000000000E+00  0.0000000000E+00  0.0000000000E+00 -0.1823196987E-34 -0.2780956522E-34  0.1228810974E-29  0.0000000000E+00  0.0000000000E+00  0.0000000000E+00
28 -0.5473301545E-37 -0.4676492136E-36 -0.6018869456E-37 -0.4279330582E-37 -0.3433117559E-36  0.1228831518E-29 -0.1339990534E-34 -0.3068947536E-29 -0.2374978957E-29 -0.9986188321E-34  0.0000000000E+00 -0.1822956536E-34 -0.2781026799E-34  0.1228831518E-29  0.1228831518E-29 -0.1339990534E-34  0.0000000000E+00  0.0000000000E+00 -0.3068947536E-29 -0.2374978957E-29 -0.9986188321E-34  0.0000000000E+00  0.0000000000E+00  0.0000000000E+00 -0.1822956536E-34 -0.2781026799E-34  0.1228831518E-29  0.0000000000E+00  0.0000000000E+00  0.0000000000E+00
29 -0.5190840264E-37 -0.4265804787E-36 -0.5656459976E-37 -0.4288792028E-37 -0.3200022751E-36  0.1228849796E-29 -0.1339847805E-34 -0.3068991001E-29 -0.2375087473E-29 -0.9986079711E-34  0.0000000000E+00 -0.1822742525E-34 -0.2781089083E-34  0.1228849796E-29  0.1228849796E-29 -0.1339847805E-34  0.0000000000E+00  0.0000000000E+00 -0.3068991001E-29 -0.2375087473E-29 -0.9986079711E-34  0.0000000000E+00  0.0000000000E+00  0.0000000000E+00 -0.1822742525E-34 -0.2781089083E-34  0.1228849796E-29  0.0000000000E+00  0.0000000000E+00  0.0000000000E+00
30 -0.4912708098E-37 -0.3870116009E-36 -0.5288886512E-37 -0.4274951557E-37 -0.2973977339E-36  0.1228865989E-29 -0.1339720627E-34 -0.3069029215E-29 -0.2375183397E-29 -0.9985988542E-34  0.0000000000E+00 -0.1822554214E-34 -0.2781143892E-34  0.1228865990E-29  0.1228865989E-29 -0.1339720627E-34  0.0000000000E+00  0.0000000000E+00 -0.3069029215E-29 -0.2375183397E-29 -0.9985988542E-34  0.0000000000E+00  0.0000000000E+00  0.0000000000E+00 -0.1822554214E-34 -0.2781143892E-34  0.1228865990E-29  0.0000000000E+00  0.0000000000E+00  0.0000000000E+00
31 -0.4639733152E-37 -0.3488668819E-36 -0.4911930042E-37 -0.4227063765E-37 -0.2750344528E-36  0.1228880253E-29 -0.1339610238E-34 -0.3069062651E-29 -0.2375267744E-29 -0.9985914110E-34  0.0000000000E+00 -0.1822390153E-34 -0.2781191776E-34  0.1228880254E-29  0.1228880253E-29 -0.1339610238E-34  0.0000000000E+00  0.0000000000E+00 -0.3069062651E-29 -0.2375267744E-29 -0.9985914110E-34  0.0000000000E+00  0.0000000000E+00  0.0000000000E+00 -0.1822390153E-34 -0.2781191776E-34  0.1228880254E-29  0.0000000000E+00  0.0000000000E+00  0.0000000000E+00
32 -0.4371103687E-37 -0.3121962630E-36 -0.4526333038E-37 -0.4137804732E-37 -0.2526439318E-36  0.1228892742E-29 -0.1339516149E-34 -0.3069091751E-29 -0.2375341559E-29 -0.9985854475E-34  0.0000000000E+00 -0.1822248202E-34 -0.2781233332E-34  0.1228892743E-29  0.1228892742E-29 -0.1339516149E-34  0.0000000000E+00  0.0000000000E+00 -0.3069091751E-29 -0.2375341559E-29 -0.9985854475E-34  0.0000000000E+00  0.0000000000E+00  0.0000000000E+00 -0.1822248202E-34 -0.2781233332E-34  0.1228892743E-29  0.0000000000E+00  0.0000000000E+00  0.0000000000E+00
33 -0.4104443676E-37 -0.2771513468E-36 -0.4135979553E-37 -0.4004877859E-37 -0.2301474248E-36  0.1228903627E-29 -0.1339436452E-34 -0.3069116969E-29 -0.2375405939E-29 -0.9985806928E-34  0.0000000000E+00 -0.1822125749E-34 -0.2781269207E-34  0.1228903627E-29  0.1228903627E-29 -0.1339436452E-34  0.0000000000E+00  0.0000000000E+00 -0.3069116969E-29 -0.2375405939E-29 -0.9985806928E-34  0.0000000000E+00  0.0000000000E+00  0.0000000000E+00 -0.1822125749E-34 -0.2781269207E-34  0.1228903627E-29  0.0000000000E+00  0.0000000000E+00  0.0000000000E+00
34 -0.3836304553E-37 -0.2439460891E-36 -0.3745922727E-37 -0.3830573239E-37 -0.2076255340E-36  0.1228913088E-29 -0.1339368511E-34 -0.3069138778E-29 -0.2375462007E-29 -0.9985768560E-34  0.0000000000E+00 -0.1822020020E-34 -0.2781300070E-34  0.1228913089E-29  0.1228913088E-29 -0.1339368511E-34  0.0000000000E+00  0.0000000000E+00 -0.3069138778E-29 -0.2375462007E-29 -0.9985768560E-34  0.0000000000E+00  0.0000000000E+00  0.0000000000E+00 -0.1822020020E-34 -0.2781300070E-34  0.1228913089E-29  0.0000000000E+00  0.0000000000E+00  0.0000000000E+00
35 -0.3562979654E-37 -0.2128168453E-36 -0.3361102641E-37 -0.3620237012E-37 -0.1852816388E-36  0.1228921311E-29 -0.1339309654E-34 -0.3069157644E-29 -0.2375510842E-29 -0.9985736714E-34  0.0000000000E+00 -0.1821928380E-34 -0.2781326576E-34  0.1228921311E-29  0.1228921311E-29 -0.1339309654E-34  0.0000000000E+00  0.0000000000E+00 -0.3069157644E-29 -0.2375510842E-29 -0.9985736714E-34  0.0000000000E+00  0.0000000000E+00  0.0000000000E+00 -0.1821928380E-34 -0.2781326576E-34  0.1228921311E-29  0.0000000000E+00  0.0000000000E+00  0.0000000000E+00
36 -0.3281465764E-37 -0.1839884242E-36 -0.2985863238E-37 -0.3380903276E-37 -0.1634032883E-36  0.1228928465E-29 -0.1339257674E-34 -0.3069173994E-29 -0.2375553421E-29 -0.9985709259E-34  0.0000000000E+00 -0.1821848547E-34 -0.2781349321E-34  0.1228928466E-29  0.1228928465E-29 -0.1339257674E-34  0.0000000000E+00  0.0000000000E+00 -0.3069173994E-29 -0.2375553421E-29 -0.9985709259E-34  0.0000000000E+00  0.0000000000E+00  0.0000000000E+00 -0.1821848547E-34 -0.2781349321E-34  0.1228928466E-29  0.0000000000E+00  0.0000000000E+00  0.0000000000E+00
37 -0.2990450859E-37 -0.1576481881E-36 -0.2623955695E-37 -0.3120552614E-37 -0.1423238031E-36  0.1228934699E-29 -0.1339211037E-34 -0.3069188190E-29 -0.2375590572E-29 -0.9985684695E-34  0.0000000000E+00 -0.1821778692E-34 -0.2781368817E-34  0.1228934699E-29  0.1228934699E-29 -0.1339211037E-34  0.0000000000E+00  0.0000000000E+00 -0.3069188190E-29 -0.2375590572E-29 -0.9985684695E-34  0.0000000000E+00  0.0000000000E+00  0.0000000000E+00 -0.1821778692E-34 -0.2781368817E-34  0.1228934699E-29  0.0000000000E+00  0.0000000000E+00  0.0000000000E+00
38 -0.2691049523E-37 -0.1339277989E-36 -0.2278671284E-37 -0.2847770067E-37 -0.1223840085E-36  0.1228940131E-29 -0.1339168867E-34 -0.3069200524E-29 -0.2375622966E-29 -0.9985662115E-34  0.0000000000E+00 -0.1821717437E-34 -0.2781385490E-34  0.1228940132E-29  0.1228940131E-29 -0.1339168867E-34  0.0000000000E+00  0.0000000000E+00 -0.3069200524E-29 -0.2375622966E-29 -0.9985662115E-34  0.0000000000E+00  0.0000000000E+00  0.0000000000E+00 -0.1821717437E-34 -0.2781385490E-34  0.1228940132E-29  0.0000000000E+00  0.0000000000E+00  0.0000000000E+00
39 -0.2387078309E-37 -0.1128924532E-36 -0.1952910425E-37 -0.2571448501E-37 -0.1038975666E-36  0.1228944858E-29 -0.1339130784E-34 -0.3069211223E-29 -0.2375651137E-29 -0.9985641090E-34  0.0000000000E+00 -0.1821663778E-34 -0.2781399689E-34  0.1228944858E-29  0.1228944858E-29 -0.1339130784E-34  0.0000000000E+00  0.0000000000E+00 -0.3069211223E-29 -0.2375651137E-29 -0.9985641090E-34  0.0000000000E+00  0.0000000000E+00  0.0000000000E+00 -0.1821663778E-34 -0.2781399689E-34  0.1228944858E-29  0.0000000000E+00  0.0000000000E+00  0.0000000000E+00
40 -0.2084663174E-37 -0.9453688908E-37 -0.1649171743E-37 -0.2300335957E-37 -0.8712089587E-37  0.1228948955E-29 -0.1339096695E-34 -0.3069220465E-29 -0.2375675521E-29 -0.9985621517E-34  0.0000000000E+00 -0.1821616967E-34 -0.2781411708E-34  0.1228948956E-29  0.1228948955E-29 -0.1339096695E-34  0.0000000000E+00  0.0000000000E+00 -0.3069220465E-29 -0.2375675521E-29 -0.9985621517E-34  0.0000000000E+00  0.0000000000E+00  0.0000000000E+00 -0.1821616967E-34 -0.2781411708E-34  0.1228948956E-29  0.0000000000E+00  0.0000000000E+00  0.0000000000E+00
41 -0.1791334133E-37 -0.7878790080E-37 -0.1369510057E-37 -0.2042453185E-37 -0.7223260028E-37  0.1228952487E-29 -0.1339066606E-34 -0.3069228400E-29 -0.2375696489E-29 -0.9985603469E-34  0.0000000000E+00 -0.1821576412E-34 -0.2781421809E-34  0.1228952487E-29  0.1228952487E-29 -0.1339066606E-34  0.0000000000E+00  0.0000000000E+00 -0.3069228400E-29 -0.2375696489E-29 -0.9985603469E-34  0.0000000000E+00  0.0000000000E+00  0.0000000000E+00 -0.1821576412E-34 -0.2781421809E-34  0.1228952487E-29  0.0000000000E+00  0.0000000000E+00  0.0000000000E+00
42 -0.1514855319E-37 -0.6551198518E-37 -0.1115495420E-37 -0.1804501555E-37 -0.5932362761E-37  0.1228955511E-29 -0.1339040498E-34 -0.3069235161E-29 -0.2375714375E-29 -0.9985587069E-34  0.0000000000E+00 -0.1821541583E-34 -0.2781430232E-34  0.1228955511E-29  0.1228955511E-29 -0.1339040498E-34  0.0000000000E+00  0.0000000000E+00 -0.3069235161E-29 -0.2375714375E-29 -0.9985587069E-34  0.0000000000E+00  0.0000000000E+00  0.0000000000E+00 -0.1821541583E-34 -0.2781430232E-34  0.1228955511E-29  0.0000000000E+00  0.0000000000E+00  0.0000000000E+00
43 -0.1262110502E-37 -0.5452636559E-37 -0.8881706715E-38 -0.1591397011E-37 -0.4839792167E-37  0.1228958080E-29 -0.1339018257E-34 -0.3069240875E-29 -0.2375729498E-29 -0.9985572411E-34  0.0000000000E+00 -0.1821511967E-34 -0.2781437198E-34  0.1228958081E-29  0.1228958080E-29 -0.1339018257E-34  0.0000000000E+00  0.0000000000E+00 -0.3069240875E-29 -0.2375729498E-29 -0.9985572411E-34  0.0000000000E+00  0.0000000000E+00  0.0000000000E+00 -0.1821511967E-34 -0.2781437198E-34  0.1228958081E-29  0.0000000000E+00  0.0000000000E+00  0.0000000000E+00
44 -0.1038285627E-37 -0.4561160017E-37 -0.6879985405E-38 -0.1406021136E-37 -0.3938146904E-37  0.1228960248E-29 -0.1338999660E-34 -0.3069245664E-29 -0.2375742165E-29 -0.9985559513E-34  0.0000000000E+00 -0.1821487041E-34 -0.2781442917E-34  0.1228960248E-29  0.1228960248E-29 -0.1338999660E-34  0.0000000000E+00  0.0000000000E+00 -0.3069245664E-29 -0.2375742165E-29 -0.9985559513E-34  0.0000000000E+00  0.0000000000E+00  0.0000000000E+00 -0.1821487041E-34 -0.2781442917E-34  0.1228960248E-29  0.0000000000E+00  0.0000000000E+00  0.0000000000E+00
45 -0.8464647330E-38 -0.3852443074E-37 -0.5148063557E-38 -0.1249216920E-37 -0.3213715059E-37  0.1228962062E-29 -0.1338984388E-34 -0.3069249646E-29 -0.2375752667E-29 -0.9985548310E-34  0.0000000000E+00 -0.1821466280E-34 -0.2781447577E-34  0.1228962062E-29  0.1228962062E-29 -0.1338984388E-34  0.0000000000E+00  0.0000000000E+00 -0.3069249646E-29 -0.2375752667E-29 -0.9985548310E-34  0.0000000000E+00  0.0000000000E+00  0.0000000000E+00 -0.1821466280E-34 -0.2781447577E-34  0.1228962062E-29  0.0000000000E+00  0.0000000000E+00  0.0000000000E+00
46 -0.6875966660E-38 -0.3300986067E-37 -0.3677591471E-38 -0.1120001719E-37 -0.2648203183E-37  0.1228963569E-29 -0.1338972064E-34 -0.3069252928E-29 -0.2375761284E-29 -0.9985538665E-34  0.0000000000E+00 -0.1821449160E-34 -0.2781451345E-34  0.1228963570E-29  0.1228963569E-29 -0.1338972064E-34  0.0000000000E+00  0.0000000000E+00 -0.3069252928E-29 -0.2375761284E-29 -0.9985538665E-34  0.0000000000E+00  0.0000000000E+00  0.0000000000E+00 -0.1821449160E-34 -0.2781451345E-34  0.1228963570E-29  0.0000000000E+00  0.0000000000E+00  0.0000000000E+00
47 -0.5607362384E-38 -0.2881198397E-37 -0.2453879026E-38 -0.1015932933E-37 -0.2220486270E-37  0.1228964811E-29 -0.1338962283E-34 -0.3069255612E-29 -0.2375768270E-29 -0.9985530401E-34  0.0000000000E+00 -0.1821435183E-34 -0.2781454364E-34  0.1228964812E-29  0.1228964811E-29 -0.1338962283E-34  0.0000000000E+00  0.0000000000E+00 -0.3069255612E-29 -0.2375768270E-29 -0.9985530401E-34  0.0000000000E+00  0.0000000000E+00  0.0000000000E+00 -0.1821435183E-34 -0.2781454364E-34  0.1228964812E-29  0.0000000000E+00  0.0000000000E+00  0.0000000000E+00
48 -0.4634319523E-38 -0.2568324054E-37 -0.1456812948E-38 -0.9335505900E-38 -0.1908193133E-37  0.1228965826E-29 -0.1338954645E-34 -0.3069257786E-29 -0.2375773861E-29 -0.9985523319E-34  0.0000000000E+00 -0.1821423885E-34 -0.2781456757E-34  0.1228965827E-29  0.1228965826E-29 -0.1338954645E-34  0.0000000000E+00  0.0000000000E+00 -0.3069257786E-29 -0.2375773861E-29 -0.9985523319E-34  0.0000000000E+00  0.0000000000E+00  0.0000000000E+00 -0.1821423885E-34 -0.2781456757E-34  0.1228965827E-29  0.0000000000E+00  0.0000000000E+00  0.0000000000E+00
49 -0.3921615545E-38 -0.2339193608E-37 -0.6622727007E-39 -0.8688286837E-38 -0.1689031746E-37  0.1228966647E-29 -0.1338948772E-34 -0.3069259527E-29 -0.2375778266E-29 -0.9985517226E-34  0.0000000000E+00 -0.1821414845E-34 -0.2781458624E-34  0.1228966648E-29  0.1228966647E-29 -0.1338948772E-34  0.0000000000E+00  0.0000000000E+00 -0.3069259527E-29 -0.2375778266E-29 -0.9985517226E-34  0.0000000000E+00  0.0000000000E+00  0.0000000000E+00 -0.1821414845E-34 -0.2781458624E-34  0.1228966648E-29  0.0000000000E+00  0.0000000000E+00  0.0000000000E+00
50 -0.3427520179E-38 -0.2172795595E-37 -0.4380645538E-40 -0.8175857296E-38 -0.1541818389E-37  0.1228967303E-29 -0.1338944328E-34 -0.3069260903E-29 -0.2375781673E-29 -0.9985511951E-34  0.0000000000E+00 -0.1821407690E-34 -0.2781460051E-34  0.1228967304E-29  0.1228967303E-29 -0.1338944328E-34  0.0000000000E+00  0.0000000000E+00 -0.3069260903E-29 -0.2375781673E-29 -0.9985511951E-34  0.0000000000E+00  0.0000000000E+00  0.0000000000E+00 -0.1821407690E-34 -0.2781460051E-34  0.1228967304E-29  0.0000000000E+00  0.0000000000E+00  0.0000000000E+00
51 -0.3107528965E-38 -0.2050669468E-37  0.4256842651E-39 -0.7758212246E-38 -0.1447219788E-37  0.1228967820E-29 -0.1338941019E-34 -0.3069261971E-29 -0.2375784246E-29 -0.9985507349E-34  0.0000000000E+00 -0.1821402092E-34 -0.2781461108E-34  0.1228967820E-29  0.1228967820E-29 -0.1338941019E-34  0.0000000000E+00  0.0000000000E+00 -0.3069261971E-29 -0.2375784246E-29 -0.9985507349E-34  0.0000000000E+00  0.0000000000E+00  0.0000000000E+00 -0.1821402092E-34 -0.2781461108E-34  0.1228967820E-29  0.0000000000E+00  0.0000000000E+00  0.0000000000E+00
52 -0.2917502325E-38 -0.1957130592E-37  0.7724164595E-39 -0.7399669573E-38 -0.1388238165E-37  0.1228968219E-29 -0.1338938596E-34 -0.3069262781E-29 -0.2375786131E-29 -0.9985503301E-34  0.0000000000E+00 -0.1821397768E-34 -0.2781461858E-34  0.1228968219E-29  0.1228968219E-29 -0.1338938596E-34  0.0000000000E+00  0.0000000000E+00 -0.3069262781E-29 -0.2375786131E-29 -0.9985503301E-34  0.0000000000E+00  0.0000000000E+00  0.0000000000E+00 -0.1821397768E-34 -0.2781461858E-34  0.1228968219E-29  0.0000000000E+00  0.0000000000E+00  0.0000000000E+00
53 -0.2816168646E-38 -0.1879345742E-37  0.1020486648E-38 -0.7070486657E-38 -0.1350477772E-37  0.1228968519E-29 -0.1338936851E-34 -0.3069263375E-29 -0.2375787458E-29 -0.9985499720E-34  0.0000000000E+00 -0.1821394473E-34 -0.2781462356E-34  0.1228968519E-29  0.1228968519E-29 -0.1338936851E-34  0.0000000000E+00  0.0000000000E+00 -0.3069263375E-29 -0.2375787458E-29 -0.9985499720E-34  0.0000000000E+00  0.0000000000E+00  0.0000000000E+00 -0.1821394473E-34 -0.2781462356E-34  0.1228968519E-29  0.0000000000E+00  0.0000000000E+00  0.0000000000E+00
54 -0.2766992180E-38 -0.1807282225E-37  0.1190990262E-38 -0.6747671646E-38 -0.1322235405E-37  0.1228968738E-29 -0.1338935614E-34 -0.3069263790E-29 -0.2375788338E-29 -0.9985496536E-34  0.0000000000E+00 -0.1821391998E-34 -0.2781462650E-34  0.1228968739E-29  0.1228968738E-29 -0.1338935614E-34  0.0000000000E+00  0.0000000000E+00 -0.3069263790E-29 -0.2375788338E-29 -0.9985496536E-34  0.0000000000E+00  0.0000000000E+00  0.0000000000E+00 -0.1821391998E-34 -0.2781462650E-34  0.1228968739E-29  0.0000000000E+00  0.0000000000E+00  0.0000000000E+00