TITLE="fun3d_case_title"
VARIABLES="Iteration" "R_1" "R_2" "R_3" "R_4" "R_5" "C_L" "C_D" "C_M_x" "C_M_y" "C_M_z" "Wall Time" "C_x" "C_y" "C_z" "C_Lp" "C_Dp" "C_Lv" "C_Dv" "C_M_xp" "C_M_yp" "C_M_zp" "C_M_xv" "C_M_yv" "C_M_zv" "C_xp" "C_yp" "C_zp" "C_xv" "C_yv" "C_zv"
ZONE  I=100 F=POINT
1  0.3523668723E-34  0.8490546167E-33 -0.1475549905E-34 -0.4838124010E-33  0.8932886092E-33  0.2175980524E-29 -0.8422128177E-31  0.8868074419E-31 -0.5474689382E-29 -0.1204795929E-35  0.0000000000E+00  0.3132882329E-34  0.2552749652E-37  0.2176052393E-29  0.2176018895E-29 -0.8425605989E-31 -0.3837102529E-34  0.3477811294E-34  0.8868358096E-31 -0.5474617399E-29  0.4261005810E-46 -0.2836760418E-35 -0.7198221116E-34 -0.1204795929E-35 -0.7245283060E-47  0.2043284864E-46  0.2176018895E-29  0.3132882329E-34  0.2552749650E-37  0.3349821303E-34
2 -0.4234839760E-33  0.2105625499E-33 -0.2602518471E-35 -0.2219708667E-33 -0.9447309530E-32  0.1988236133E-29  0.1410429804E-31  0.7113098457E-31 -0.4889737868E-29 -0.3343396933E-35  0.0000000000E+00  0.3201738430E-34 -0.4781227724E-36  0.1988332780E-29  0.1988313173E-29  0.1406627737E-31 -0.7704003675E-34  0.3802066578E-34  0.7113627992E-31 -0.4889710724E-29  0.6954871276E-37 -0.5295344463E-35 -0.2714396477E-34 -0.3412945646E-35 -0.4185849724E-36  0.3162159626E-37  0.1988313222E-29  0.3243596927E-34 -0.5097443687E-36  0.1955810344E-34
3  0.5869129778E-34  0.7498123104E-34 -0.4883755751E-34 -0.8074855245E-33 -0.6263677778E-32  0.1851991310E-29  0.8801803918E-31  0.5888649030E-31 -0.4443416201E-29 -0.3556092123E-35  0.0000000000E+00 -0.1566189959E-34  0.1139108600E-35  0.1852115586E-29  0.1852098603E-29  0.8798511618E-31 -0.1072932652E-33  0.3292299323E-34  0.5889319607E-31 -0.4443428338E-29  0.4712672149E-35 -0.6705777899E-35  0.1213653335E-34 -0.8268764272E-35 -0.4150596210E-34  0.2256033642E-35  0.1852103835E-29  0.2584406251E-34 -0.1116925042E-35  0.1175127113E-34
4 -0.1615585966E-33 -0.1089359414E-33 -0.4368014491E-34 -0.4582417838E-33 -0.3437933246E-32  0.1703506263E-29  0.1671486946E-30  0.1801879407E-31 -0.3876524000E-29 -0.9842862049E-35  0.0000000000E+00 -0.2735305451E-34 -0.2122173195E-36  0.1703643634E-29  0.1703636188E-29  0.1671295295E-30 -0.1299250091E-33  0.1916517071E-34  0.1802198053E-31 -0.3876575710E-29  0.4573881313E-36 -0.3186457098E-35  0.5171046639E-34 -0.1030025018E-34 -0.4172848675E-34  0.1233346635E-35  0.1703641202E-29  0.1437543224E-34 -0.1445563955E-35  0.2431755579E-35
5 -0.2153539260E-33 -0.5293220214E-34 -0.2327493663E-34 -0.6134125814E-34 -0.8877726726E-33  0.1443299876E-29  0.2454769134E-30  0.1135700792E-31 -0.2962164019E-29 -0.1328139251E-34  0.0000000000E+00 -0.4996048435E-34 -0.1086572287E-35  0.1443432248E-29  0.1443431331E-29  0.2454866532E-30 -0.1314545481E-33 -0.9739868315E-35  0.1135982420E-31 -0.2962225427E-29 -0.2049133687E-35 -0.2816285454E-35  0.6140755946E-34 -0.1123225882E-34 -0.4058698297E-34  0.6029770624E-36  0.1443434662E-29 -0.9373501375E-35 -0.1689549349E-35 -0.2413941358E-35
6 -0.1084944129E-33 -0.9257667211E-34 -0.3451259911E-34  0.2431548306E-34  0.9223377514E-33  0.1213937834E-29  0.2804584806E-30 -0.8900303869E-32 -0.2209822045E-29 -0.1453239182E-34  0.0000000000E+00 -0.5549176588E-34 -0.1935967293E-35  0.1214060417E-29  0.1214055137E-29  0.2804808871E-30 -0.1173034365E-33 -0.2240646849E-34 -0.8896202510E-32 -0.2209857461E-29 -0.5683549993E-35 -0.4101358700E-35  0.3541544886E-34 -0.8848841829E-35 -0.3842382235E-34 -0.2644590681E-36  0.1214057538E-29 -0.1706794352E-34 -0.1671508225E-35  0.2879166172E-35
7  0.9885617586E-36 -0.7965654015E-34 -0.3730246676E-34 -0.2762560802E-34  0.1922808188E-32  0.1224977476E-29  0.2793284535E-30 -0.2659574537E-31 -0.2190346593E-29 -0.1069172652E-34  0.0000000000E+00 -0.5067239562E-34 -0.1815084805E-35  0.1225091980E-29  0.1225083379E-29  0.2793485380E-30 -0.1059027178E-33 -0.2008449538E-34 -0.2659104504E-31 -0.2190364034E-29 -0.7327861102E-35 -0.4700329692E-35  0.1744049980E-34 -0.3363865414E-35 -0.3829742064E-34 -0.4312236188E-36  0.1225085228E-29 -0.1237497498E-34 -0.1383861186E-35  0.6751750772E-35
8  0.8799912966E-35 -0.1137053198E-33 -0.3085601806E-34 -0.6256496028E-34  0.1078857988E-32  0.1268631768E-29  0.2801933413E-30 -0.1487890661E-31 -0.2283761495E-29 -0.7854195462E-35  0.0000000000E+00 -0.4504697474E-34 -0.7970857033E-36  0.1268740354E-29  0.1268730927E-29  0.2802086568E-30 -0.9915914577E-34 -0.1531547803E-34 -0.1487422247E-31 -0.2283772405E-29 -0.6838074855E-35 -0.4684147261E-35  0.1091034605E-34 -0.1016120607E-35 -0.3816195648E-34 -0.8561640619E-37  0.1268732318E-29 -0.6885018260E-35 -0.7114692971E-36  0.8035724772E-35
9 -0.5706056111E-34 -0.8193301856E-34 -0.1720056569E-34 -0.1266289302E-33 -0.1391371601E-33  0.1272104089E-29  0.2744927364E-30 -0.1465460332E-31 -0.2321985088E-29 -0.4543218526E-35  0.0000000000E+00 -0.4135531176E-34  0.2680950847E-37  0.1272208187E-29  0.1272199630E-29  0.2745062416E-30 -0.9554081169E-34 -0.1350523204E-34 -0.1465013403E-31 -0.2321995132E-29 -0.7412722291E-35 -0.4469293369E-35  0.1004420526E-34  0.2869503765E-35 -0.3653976779E-34  0.8800546472E-38  0.1272200799E-29 -0.4815543972E-35  0.1800896200E-37  0.7387894767E-35
10 -0.6326836587E-34 -0.5597738882E-34 -0.7855491818E-35 -0.9200801618E-34 -0.1858424210E-33  0.1283602262E-29  0.2652941138E-30 -0.1345566058E-31 -0.2378617401E-29 -0.1371452917E-35  0.0000000000E+00 -0.4054858826E-34  0.5039413726E-36  0.1283703210E-29  0.1283694765E-29  0.2653078450E-30 -0.9250222622E-34 -0.1373124320E-34 -0.1345151549E-31 -0.2378627106E-29 -0.7216868482E-35 -0.4145091755E-35  0.9705667502E-35  0.5845415565E-35 -0.3571642329E-34 -0.9001729735E-37  0.1283695894E-29 -0.4832164967E-35  0.5939586700E-36  0.7315434794E-35
11 -0.4985874401E-34 -0.4050342419E-34 -0.1015628738E-34 -0.7974243618E-34 -0.1561556206E-33  0.1297947168E-29  0.2581138789E-30 -0.1023018079E-31 -0.2430544021E-29  0.1153416428E-35  0.0000000000E+00 -0.4034123500E-34  0.1035058304E-35  0.1298046159E-29  0.1298037484E-29  0.2581274475E-30 -0.9031633688E-34 -0.1356859985E-34 -0.1022634308E-31 -0.2430553154E-29 -0.6697860094E-35 -0.3837708784E-35  0.9132630849E-35  0.7851276522E-35 -0.3582757909E-34  0.7817876568E-38  0.1298038655E-29 -0.4513655908E-35  0.1027240428E-35  0.7504556120E-35
12 -0.4625103760E-34 -0.3964893282E-34 -0.8418871856E-35 -0.7827602860E-34 -0.1262859154E-33  0.1319195457E-29  0.2511459081E-30 -0.6661530985E-32 -0.2489329137E-29  0.3060374446E-35  0.0000000000E+00 -0.4033139425E-34  0.1451237449E-35  0.1319293071E-29  0.1319284214E-29  0.2511589930E-30 -0.8875708092E-34 -0.1308488737E-34 -0.6657877816E-32 -0.2489337997E-29 -0.6204444631E-35 -0.3653168743E-35  0.8859904986E-35  0.9264819077E-35 -0.3636703071E-34  0.1357824240E-36  0.1319285454E-29 -0.3964363535E-35  0.1315455025E-35  0.7616733683E-35
13 -0.4035575504E-34 -0.3902116447E-34 -0.5851333763E-35 -0.5938363262E-34 -0.9467470655E-34  0.1332885618E-29  0.2466635010E-30 -0.4431114200E-32 -0.2523006241E-29  0.4170023366E-35  0.0000000000E+00 -0.4068129288E-34  0.1668917978E-35  0.1332982314E-29  0.1332973395E-29  0.2466765150E-30 -0.8777701645E-34 -0.1301398647E-34 -0.4427543521E-32 -0.2523015141E-29 -0.5908569693E-35 -0.3570678608E-35  0.8899417177E-35  0.1007859306E-34 -0.3680881990E-34  0.2173264625E-36  0.1332974686E-29 -0.3872472990E-35  0.1451591516E-35  0.7627337489E-35
14 -0.2827372640E-34 -0.3531716933E-34 -0.4936550666E-35 -0.6208280201E-34 -0.6631714487E-34  0.1342908672E-29  0.2438145479E-30 -0.3152060670E-32 -0.2547798816E-29  0.4675387191E-35  0.0000000000E+00 -0.4092100313E-34  0.1674199972E-35  0.1343004752E-29  0.1342995804E-29  0.2438275824E-30 -0.8713150079E-34 -0.1303449014E-34 -0.3148545935E-32 -0.2547807846E-29 -0.5868858062E-35 -0.3514734939E-35  0.9029960609E-35  0.1054424525E-34 -0.3701816517E-34  0.1621845486E-36  0.1342997133E-29 -0.3902837958E-35  0.1512015423E-35  0.7619063948E-35
15 -0.1904965281E-34 -0.2967234772E-34 -0.4324488509E-35 -0.4346271863E-34 -0.4732752001E-34  0.1347165484E-29  0.2424516822E-30 -0.2255455061E-32 -0.2558703540E-29  0.5032507236E-35  0.0000000000E+00 -0.4117696593E-34  0.1733971218E-35  0.1347261136E-29  0.1347252187E-29  0.2424648685E-30 -0.8670309502E-34 -0.1318626974E-34 -0.2251992088E-32 -0.2558712743E-29 -0.5763118286E-35 -0.3462972968E-35  0.9202690199E-35  0.1079562552E-34 -0.3711690902E-34  0.1954510336E-36  0.1347253528E-29 -0.4060056913E-35  0.1538520185E-35  0.7607580047E-35
16 -0.1123535158E-34 -0.2373390831E-34 -0.4421491928E-35  0.2568425888E-34 -0.3184556956E-34  0.1346143645E-29  0.2415519125E-30 -0.2377298460E-32 -0.2556931260E-29  0.5048734471E-35  0.0000000000E+00 -0.4140256377E-34  0.1698164596E-35  0.1346238971E-29  0.1346230054E-29  0.2415653518E-30 -0.8640872715E-34 -0.1343928312E-34 -0.2373851462E-32 -0.2556940731E-29 -0.5764952562E-35 -0.3446998137E-35  0.9470846339E-35  0.1081368703E-34 -0.3708873306E-34  0.1941316430E-36  0.1346231400E-29 -0.4313830707E-35  0.1504032953E-35  0.7571165364E-35
17 -0.4970035532E-35 -0.1818093951E-34 -0.4475585886E-35  0.7533902102E-34 -0.1992565927E-34  0.1342893570E-29  0.2410117228E-30 -0.1586573437E-32 -0.2550263021E-29  0.5231582833E-35  0.0000000000E+00 -0.4153751430E-34  0.1736043490E-35  0.1342988662E-29  0.1342979772E-29  0.2410253934E-30 -0.8620244690E-34 -0.1367062721E-34 -0.1583179271E-32 -0.2550272702E-29 -0.5660884996E-35 -0.3394165939E-35  0.9680905084E-35  0.1089246783E-34 -0.3699567442E-34  0.2215895307E-36  0.1342981122E-29 -0.4541839877E-35  0.1514453959E-35  0.7539858987E-35
18 -0.1937895874E-35 -0.1161624311E-34 -0.2590699419E-35  0.5626088718E-34 -0.1286828736E-34  0.1340014323E-29  0.2407314410E-30 -0.1280822137E-32 -0.2544671377E-29  0.5370902022E-35  0.0000000000E+00 -0.4156625093E-34  0.1764644586E-35  0.1340109250E-29  0.1340100364E-29  0.2407452326E-30 -0.8604119255E-34 -0.1379164708E-34 -0.1277455572E-32 -0.2544681140E-29 -0.5605463078E-35 -0.3366565002E-35  0.9762857928E-35  0.1097636510E-34 -0.3690382269E-34  0.2355582678E-36  0.1340101717E-29 -0.4662428236E-35  0.1529086318E-35  0.7533176644E-35
19 -0.3020388517E-35 -0.5989427737E-35 -0.1528347486E-35  0.1190381103E-34 -0.1351746940E-34  0.1339036993E-29  0.2406984396E-30 -0.9113251322E-33 -0.2543298475E-29  0.5538236755E-35  0.0000000000E+00 -0.4150625576E-34  0.1804768088E-35  0.1339131815E-29  0.1339122907E-29  0.2407122152E-30 -0.8591426944E-34 -0.1377563116E-34 -0.9079783161E-33 -0.2543308192E-29 -0.5549870950E-35 -0.3346816128E-35  0.9716940538E-35  0.1108810770E-34 -0.3685822708E-34  0.2507556811E-36  0.1339124262E-29 -0.4648028684E-35  0.1554012407E-35  0.7553681592E-35
20 -0.3360150030E-35 -0.2867451596E-35 -0.5710808854E-36  0.6559791331E-37 -0.1091908754E-34  0.1338515312E-29  0.2407072735E-30 -0.6738794886E-33 -0.2542256596E-29  0.5669979799E-35  0.0000000000E+00 -0.4145840356E-34  0.1832469158E-35  0.1338610069E-29  0.1338601146E-29  0.2407210171E-30 -0.8583407198E-34 -0.1374365084E-34 -0.6705400947E-33 -0.2542266283E-29 -0.5518123046E-35 -0.3339393924E-35  0.9687246763E-35  0.1118810284E-34 -0.3684039821E-34  0.2589385714E-36  0.1338602502E-29 -0.4618005345E-35  0.1573530587E-35  0.7566748005E-35
21 -0.2637503388E-35 -0.3164715071E-36  0.2843788666E-36 -0.3591989208E-35 -0.7749153093E-35  0.1338343289E-29  0.2407347347E-30 -0.5579653341E-33 -0.2541639295E-29  0.5752066908E-35  0.0000000000E+00 -0.4144807618E-34  0.1844526532E-35  0.1338438008E-29  0.1338429079E-29  0.2407484664E-30 -0.8578982141E-34 -0.1373165837E-34 -0.5546261785E-33 -0.2541648979E-29 -0.5505386076E-35 -0.3339155543E-35  0.9683883437E-35  0.1125745298E-34 -0.3684038522E-34  0.2617946145E-36  0.1338430436E-29 -0.4607690961E-35  0.1582731917E-35  0.7571706220E-35
22 -0.1660567103E-35  0.9268259204E-36  0.4820628356E-36 -0.3923829231E-35 -0.4812571119E-35  0.1338329880E-29  0.2407564907E-30 -0.5071437092E-33 -0.2541308801E-29  0.5794728337E-35  0.0000000000E+00 -0.4146505613E-34  0.1846060887E-35  0.1338424580E-29  0.1338415648E-29  0.2407702313E-30 -0.8576762340E-34 -0.1374061107E-34 -0.5038023964E-33 -0.2541318494E-29 -0.5502245918E-35 -0.3341312812E-35  0.9693175993E-35  0.1129697425E-34 -0.3684683422E-34  0.2620378349E-36  0.1338417007E-29 -0.4618221900E-35  0.1584023052E-35  0.7572515595E-35
23 -0.9245262585E-36  0.7510103253E-36  0.3039892341E-36 -0.3085205447E-35 -0.3227959092E-35  0.1338366039E-29  0.2407685083E-30 -0.4853202259E-33 -0.2541165992E-29  0.5812006383E-35  0.0000000000E+00 -0.4149298084E-34  0.1842559692E-35  0.1338460729E-29  0.1338451797E-29  0.2407822686E-30 -0.8575762048E-34 -0.1376030348E-34 -0.4819763501E-33 -0.2541175697E-29 -0.5502087841E-35 -0.3343875793E-35  0.9704707027E-35  0.1131409422E-34 -0.3685360248E-34  0.2616177113E-36  0.1338453157E-29 -0.4639378358E-35  0.1580941981E-35  0.7571951434E-35
24 -0.4900232610E-36 -0.8988081532E-37  0.6735730123E-37 -0.2063747580E-35 -0.2271985236E-35  0.1338417696E-29  0.2407719606E-30 -0.4760160291E-33 -0.2541177974E-29  0.5814721405E-35  0.0000000000E+00 -0.4151975930E-34  0.1837553404E-35  0.1338512381E-29  0.1338503449E-29  0.2407857417E-30 -0.8575371756E-34 -0.1378103287E-34 -0.4726698247E-33 -0.2541187689E-29 -0.5502286872E-35 -0.3346204366E-35  0.9714963609E-35  0.1131700828E-34 -0.3685837662E-34  0.2612828924E-36  0.1338504810E-29 -0.4661382686E-35  0.1576270511E-35  0.7571049091E-35
25 -0.2767255075E-36 -0.8534815671E-36 -0.9480626651E-37 -0.1299332475E-35 -0.1650212235E-35  0.1338465016E-29  0.2407723181E-30 -0.4735799122E-33 -0.2541271036E-29  0.5809755386E-35  0.0000000000E+00 -0.4153981971E-34  0.1832666161E-35  0.1338559699E-29  0.1338550769E-29  0.2407861158E-30 -0.8575284363E-34 -0.1379765945E-34 -0.4702319071E-33 -0.2541280760E-29 -0.5502418390E-35 -0.3348005161E-35  0.9723689217E-35  0.1131217378E-34 -0.3686086510E-34  0.2611030367E-36  0.1338552129E-29 -0.4678954602E-35  0.1571563124E-35  0.7570063070E-35
26 -0.1643177635E-36 -0.1167942435E-35 -0.1735985671E-36 -0.8139571417E-36 -0.1168100645E-35  0.1338504307E-29  0.2407701794E-30 -0.4741399978E-33 -0.2541388948E-29  0.5801693266E-35  0.0000000000E+00 -0.4155187292E-34  0.1828608860E-35  0.1338598990E-29  0.1338590060E-29  0.2407839876E-30 -0.8575289195E-34 -0.1380817663E-34 -0.4707907767E-33 -0.2541398678E-29 -0.5502535668E-35 -0.3349221096E-35  0.9730377204E-35  0.1130422893E-34 -0.3686176627E-34  0.2610076852E-36  0.1338591421E-29 -0.4690106651E-35  0.1567601175E-35  0.7569298913E-35
27 -0.1105622209E-36 -0.1119800812E-35 -0.1877444677E-36 -0.5161918396E-36 -0.8238274788E-36  0.1338537189E-29  0.2407664477E-30 -0.4750090855E-33 -0.2541496217E-29  0.5793404670E-35  0.0000000000E+00 -0.4155746819E-34  0.1825573515E-35  0.1338631871E-29  0.1338622942E-29  0.2407802609E-30 -0.8575278673E-34 -0.1381316553E-34 -0.4716591095E-33 -0.2541505952E-29 -0.5502676528E-35 -0.3349975943E-35  0.9734514395E-35  0.1129608120E-34 -0.3686198198E-34  0.2609490476E-36  0.1338624302E-29 -0.4695486204E-35  0.1564624468E-35  0.7568981267E-35
28 -0.8444531717E-37 -0.9147349417E-36 -0.1655987708E-36 -0.3261529402E-36 -0.5813066497E-36  0.1338566679E-29  0.2407620360E-30 -0.4747953101E-33 -0.2541582312E-29  0.5786427035E-35  0.0000000000E+00 -0.4155905340E-34  0.1823493660E-35  0.1338661361E-29  0.1338652431E-29  0.2407758504E-30 -0.8575225426E-34 -0.1381439287E-34 -0.4714448620E-33 -0.2541592048E-29 -0.5502820154E-35 -0.3350448120E-35  0.9736346948E-35  0.1128924719E-34 -0.3686211216E-34  0.2609117941E-36  0.1338653791E-29 -0.4696941240E-35  0.1562581866E-35  0.7569075703E-35
29 -0.6994956853E-37 -0.6851882982E-36 -0.1300058171E-36 -0.2071887024E-36 -0.4097168140E-36  0.1338594202E-29  0.2407577152E-30 -0.4733841255E-33 -0.2541649507E-29  0.5781285701E-35  0.0000000000E+00 -0.4155873216E-34  0.1822180879E-35  0.1338688883E-29  0.1338679954E-29  0.2407715288E-30 -0.8575144017E-34 -0.1381367801E-34 -0.4700333492E-33 -0.2541659243E-29 -0.5502934612E-35 -0.3350776315E-35  0.9736685670E-35  0.1128422031E-34 -0.3686237685E-34  0.2608934179E-36  0.1338681314E-29 -0.4696355303E-35  0.1561287462E-35  0.7569390087E-35
30 -0.5790549388E-37 -0.4832462904E-36 -0.9531234246E-37 -0.1443753532E-36 -0.2850242311E-36  0.1338619198E-29  0.2407538993E-30 -0.4712893173E-33 -0.2541702204E-29  0.5777890880E-35  0.0000000000E+00 -0.4155782244E-34  0.1821423593E-35  0.1338713878E-29  0.1338704949E-29  0.2407677116E-30 -0.8575057105E-34 -0.1381231522E-34 -0.4679382907E-33 -0.2541711940E-29 -0.5503004844E-35 -0.3351026532E-35  0.9736360077E-35  0.1128089572E-34 -0.3686275529E-34  0.2608915519E-36  0.1338706309E-29 -0.4695067152E-35  0.1560532041E-35  0.7569739852E-35
31 -0.4530521539E-37 -0.3235093063E-36 -0.6760921693E-37 -0.1239845751E-36 -0.1942185843E-36  0.1338640061E-29  0.2407509078E-30 -0.4691903420E-33 -0.2541742348E-29  0.5775893042E-35  0.0000000000E+00 -0.4155695095E-34  0.1821037270E-35  0.1338734741E-29  0.1338725811E-29  0.2407647188E-30 -0.8574981760E-34 -0.1381100537E-34 -0.4658391293E-33 -0.2541752084E-29 -0.5503041813E-35 -0.3351212679E-35  0.9735909091E-35  0.1127893486E-34 -0.3686314821E-34  0.2608988379E-36  0.1338727171E-29 -0.4693802739E-35  0.1560138432E-35  0.7570024329E-35
32 -0.3263558606E-37 -0.2065806264E-36 -0.4765684176E-37 -0.1228566317E-36 -0.1293669261E-36  0.1338655999E-29  0.2407486863E-30 -0.4673934183E-33 -0.2541771636E-29  0.5774888733E-35  0.0000000000E+00 -0.4155629018E-34  0.1820885321E-35  0.1338750678E-29  0.1338741748E-29  0.2407624963E-30 -0.8574923807E-34 -0.1380998194E-34 -0.4640420811E-33 -0.2541781372E-29 -0.5503046001E-35 -0.3351337215E-35  0.9735554008E-35  0.1127793473E-34 -0.3686347939E-34  0.2609129509E-36  0.1338743108E-29 -0.4692810789E-35  0.1559972370E-35  0.7570220453E-35
33 -0.2133498496E-37 -0.1276023263E-36 -0.3370996975E-37 -0.1190292374E-36 -0.8537072646E-37  0.1338667126E-29  0.2407471059E-30 -0.4659911361E-33 -0.2541791570E-29  0.5774524760E-35  0.0000000000E+00 -0.4155581815E-34  0.1820871481E-35  0.1338761805E-29  0.1338752875E-29  0.2407609151E-30 -0.8574882698E-34 -0.1380924379E-34 -0.4626397284E-33 -0.2541801306E-29 -0.5503023115E-35 -0.3351407724E-35  0.9735325079E-35  0.1127754788E-34 -0.3686372096E-34  0.2609314662E-36  0.1338754235E-29 -0.4692097186E-35  0.1559940015E-35  0.7570345028E-35
34 -0.1261752393E-37 -0.7921833476E-37 -0.2378986001E-37 -0.1046722387E-36 -0.5689559796E-37  0.1338674287E-29  0.2407460095E-30 -0.4649595130E-33 -0.2541804006E-29  0.5774528014E-35  0.0000000000E+00 -0.4155546944E-34  0.1820929207E-35  0.1338768966E-29  0.1338760036E-29  0.2407598182E-30 -0.8574855143E-34 -0.1380871329E-34 -0.4616080733E-33 -0.2541813741E-29 -0.5502983707E-35 -0.3351439778E-35  0.9735180226E-35  0.1127751172E-34 -0.3686388208E-34  0.2609514278E-36  0.1338761396E-29 -0.4691587369E-35  0.1559977779E-35  0.7570424171E-35
35 -0.6747686044E-38 -0.5257733893E-37 -0.1651594219E-37 -0.8347254375E-37 -0.3885732878E-37  0.1338678631E-29  0.2407452535E-30 -0.4642404448E-33 -0.2541811040E-29  0.5774703538E-35  0.0000000000E+00 -0.4155519854E-34  0.1821013433E-35  0.1338773310E-29  0.1338764380E-29  0.2407590618E-30 -0.8574837443E-34 -0.1380831862E-34 -0.4608889937E-33 -0.2541820775E-29 -0.5502940398E-35 -0.3351451103E-35  0.9735074429E-35  0.1127764394E-34 -0.3686398802E-34  0.2609697293E-36  0.1338765740E-29 -0.4691210520E-35  0.1560043704E-35  0.7570478313E-35
36 -0.3265753481E-38 -0.3889097462E-37 -0.1112359583E-37 -0.6149661584E-37 -0.2697821917E-37  0.1338681227E-29  0.2407447251E-30 -0.4637709958E-33 -0.2541814636E-29  0.5774924889E-35  0.0000000000E+00 -0.4155498806E-34  0.1821096133E-35  0.1338775906E-29  0.1338766976E-29  0.2407585331E-30 -0.8574826515E-34 -0.1380801746E-34 -0.4604195401E-33 -0.2541824371E-29 -0.5502903508E-35 -0.3351455754E-35  0.9734983910E-35  0.1127782840E-34 -0.3686406348E-34  0.2609840669E-36  0.1338768336E-29 -0.4690924579E-35  0.1560112067E-35  0.7570518744E-35
37 -0.1389827325E-38 -0.3130720981E-37 -0.7222463135E-38 -0.4269756785E-37 -0.1858788999E-37  0.1338682859E-29  0.2407443460E-30 -0.4634911626E-33 -0.2541816332E-29  0.5775121065E-35  0.0000000000E+00 -0.4155483537E-34  0.1821162983E-35  0.1338777538E-29  0.1338768607E-29  0.2407581538E-30 -0.8574820119E-34 -0.1380779094E-34 -0.4601397010E-33 -0.2541826067E-29 -0.5502878590E-35 -0.3351461579E-35  0.9734904594E-35  0.1127799965E-34 -0.3686412465E-34  0.2609934566E-36  0.1338769967E-29 -0.4690710722E-35  0.1560169526E-35  0.7570549778E-35
38 -0.4370716474E-39 -0.2596304710E-37 -0.4556791412E-38 -0.2848453450E-37 -0.1240435099E-37  0.1338683995E-29  0.2407440662E-30 -0.4633450404E-33 -0.2541817135E-29  0.5775262362E-35  0.0000000000E+00 -0.4155473842E-34  0.1821209856E-35  0.1338778674E-29  0.1338769743E-29  0.2407578738E-30 -0.8574816700E-34 -0.1380762986E-34 -0.4599935695E-33 -0.2541826870E-29 -0.5502866311E-35 -0.3351470876E-35  0.9734841365E-35  0.1127812867E-34 -0.3686417855E-34  0.2609981989E-36  0.1338771103E-29 -0.4690559866E-35  0.1560211657E-35  0.7570572405E-35
39  0.3169872374E-40 -0.2141101546E-37 -0.2876536784E-38 -0.1862592918E-37 -0.7916685107E-38  0.1338684861E-29  0.2407438558E-30 -0.4632831019E-33 -0.2541817591E-29  0.5775346183E-35  0.0000000000E+00 -0.4155468923E-34  0.1821239003E-35  0.1338779540E-29  0.1338770610E-29  0.2407576633E-30 -0.8574815168E-34 -0.1380752503E-34 -0.4599316193E-33 -0.2541827325E-29 -0.5502863982E-35 -0.3351482619E-35  0.9734798656E-35  0.1127821016E-34 -0.3686422619E-34  0.2609994359E-36  0.1338771970E-29 -0.4690463040E-35  0.1560239567E-35  0.7570587107E-35
40  0.2471595935E-39 -0.1737049806E-37 -0.1905175887E-38 -0.1217092687E-37 -0.4822258449E-38  0.1338685543E-29  0.2407436964E-30 -0.4632646770E-33 -0.2541817925E-29  0.5775384511E-35  0.0000000000E+00 -0.4155467461E-34  0.1821255578E-35  0.1338780222E-29  0.1338771291E-29  0.2407575039E-30 -0.8574814731E-34 -0.1380746424E-34 -0.4599131823E-33 -0.2541827660E-29 -0.5502867494E-35 -0.3351494685E-35  0.9734776244E-35  0.1127825200E-34 -0.3686426625E-34  0.2609986169E-36  0.1338772651E-29 -0.4690408362E-35  0.1560256961E-35  0.7570595093E-35
41  0.3267093796E-39 -0.1386324206E-37 -0.1373561264E-38 -0.8054616264E-38 -0.2813567914E-38  0.1338686066E-29  0.2407435772E-30 -0.4632629907E-33 -0.2541818198E-29  0.5775394041E-35  0.0000000000E+00 -0.4155468014E-34  0.1821264917E-35  0.1338780745E-29  0.1338771814E-29  0.2407573846E-30 -0.8574814835E-34 -0.1380743381E-34 -0.4599114854E-33 -0.2541827933E-29 -0.5502873266E-35 -0.3351505265E-35  0.9734769658E-35  0.1127826731E-34 -0.3686429768E-34  0.2609969602E-36  0.1338773174E-29 -0.4690382466E-35  0.1560267957E-35  0.7570598280E-35
42  0.3322730351E-39 -0.1090043356E-37 -0.1071615034E-38 -0.5400243815E-38 -0.1554400328E-38  0.1338686447E-29  0.2407434896E-30 -0.4632611841E-33 -0.2541818407E-29  0.5775390231E-35  0.0000000000E+00 -0.4155469389E-34  0.1821271230E-35  0.1338781125E-29  0.1338772195E-29  0.2407572970E-30 -0.8574815110E-34 -0.1380742125E-34 -0.4599096707E-33 -0.2541828141E-29 -0.5502878673E-35 -0.3351513410E-35  0.9734772645E-35  0.1127826890E-34 -0.3686432066E-34  0.2609953433E-36  0.1338773555E-29 -0.4690373232E-35  0.1560275887E-35  0.7570598722E-35
43  0.3043623406E-39 -0.8441299611E-38 -0.8710643738E-39 -0.3620515769E-38 -0.7793119511E-39  0.1338686707E-29  0.2407434268E-30 -0.4632519376E-33 -0.2541818540E-29  0.5775384253E-35  0.0000000000E+00 -0.4155470820E-34  0.1821277084E-35  0.1338781386E-29  0.1338772455E-29  0.2407572343E-30 -0.8574815352E-34 -0.1380741732E-34 -0.4599004187E-33 -0.2541828275E-29 -0.5502882398E-35 -0.3351518961E-35  0.9734779609E-35  0.1127826665E-34 -0.3686433648E-34  0.2609942146E-36  0.1338773815E-29 -0.4690371716E-35  0.1560282869E-35  0.7570598062E-35
44  0.2642322041E-39 -0.6427374767E-38 -0.7108595510E-39 -0.2382274352E-38 -0.2972366737E-39  0.1338686875E-29  0.2407433833E-30 -0.4632341209E-33 -0.2541818603E-29  0.5775382415E-35  0.0000000000E+00 -0.4155471953E-34  0.1821283583E-35  0.1338781554E-29  0.1338772624E-29  0.2407571907E-30 -0.8574815484E-34 -0.1380741644E-34 -0.4598825987E-33 -0.2541828338E-29 -0.5502884130E-35 -0.3351522262E-35  0.9734786848E-35  0.1127826655E-34 -0.3686434693E-34  0.2609936912E-36  0.1338773984E-29 -0.4690372596E-35  0.1560289892E-35  0.7570597303E-35
45  0.2234710490E-39 -0.4801547126E-38 -0.5695073981E-39 -0.1514782326E-38  0.4151632148E-41  0.1338686980E-29  0.2407433542E-30 -0.4632097913E-33 -0.2541818611E-29  0.5775386951E-35  0.0000000000E+00 -0.4155472723E-34  0.1821290837E-35  0.1338781658E-29  0.1338772728E-29  0.2407571616E-30 -0.8574815507E-34 -0.1380741603E-34 -0.4598582674E-33 -0.2541828346E-29 -0.5502884153E-35 -0.3351523862E-35  0.9734792664E-35  0.1127827110E-34 -0.3686435374E-34  0.2609936932E-36  0.1338774088E-29 -0.4690373488E-35  0.1560297144E-35  0.7570596861E-35
46  0.1867908701E-39 -0.3513033080E-38 -0.4427717821E-39 -0.9232158309E-39  0.1887091744E-39  0.1338687042E-29  0.2407433355E-30 -0.4631819683E-33 -0.2541818583E-29  0.5775397387E-35  0.0000000000E+00 -0.4155473208E-34  0.1821298448E-35  0.1338781721E-29  0.1338772790E-29  0.2407571430E-30 -0.8574815461E-34 -0.1380741537E-34 -0.4598304440E-33 -0.2541828317E-29 -0.5502882975E-35 -0.3351524313E-35  0.9734796774E-35  0.1127828036E-34 -0.3686435826E-34  0.2609940624E-36  0.1338774150E-29 -0.4690373824E-35  0.1560304385E-35  0.7570596770E-35
47  0.1556416457E-39 -0.2514174200E-38 -0.3315940495E-39 -0.5392270432E-39  0.2928439001E-39  0.1338687080E-29  0.2407433242E-30 -0.4631534096E-33 -0.2541818536E-29  0.5775411874E-35  0.0000000000E+00 -0.4155473523E-34  0.1821305879E-35  0.1338781758E-29  0.1338772828E-29  0.2407571317E-30 -0.8574815388E-34 -0.1380741461E-34 -0.4598018855E-33 -0.2541828271E-29 -0.5502881104E-35 -0.3351524071E-35  0.9734799585E-35  0.1127829298E-34 -0.3686436139E-34  0.2609946387E-36  0.1338774188E-29 -0.4690373838E-35  0.1560311240E-35  0.7570596894E-35
48  0.1297432553E-39 -0.1758188839E-38 -0.2372503980E-39 -0.3045835026E-39  0.3404702861E-39  0.1338687102E-29  0.2407433179E-30 -0.4631261234E-33 -0.2541818484E-29  0.5775428214E-35  0.0000000000E+00 -0.4155473758E-34  0.1821312676E-35  0.1338781781E-29  0.1338772850E-29  0.2407571253E-30 -0.8574815320E-34 -0.1380741406E-34 -0.4597745999E-33 -0.2541828219E-29 -0.5502878939E-35 -0.3351523469E-35  0.9734801642E-35  0.1127830715E-34 -0.3686436367E-34  0.2609952959E-36  0.1338774210E-29 -0.4690373909E-35  0.1560317381E-35  0.7570597083E-35
49  0.1082575704E-39 -0.1199568537E-38 -0.1601232803E-39 -0.1704854787E-39  0.3492212020E-39  0.1338687115E-29  0.2407433148E-30 -0.4631013231E-33 -0.2541818434E-29  0.5775444493E-35  0.0000000000E+00 -0.4155473965E-34  0.1821318559E-35  0.1338781794E-29  0.1338772863E-29  0.2407571222E-30 -0.8574815272E-34 -0.1380741391E-34 -0.4597498004E-33 -0.2541828169E-29 -0.5502876752E-35 -0.3351522731E-35  0.9734803351E-35  0.1127832124E-34 -0.3686436539E-34  0.2609959502E-36  0.1338774223E-29 -0.4690374263E-35  0.1560322609E-35  0.7570597237E-35
50  0.9032165849E-40 -0.7962217813E-39 -0.9968466499E-40 -0.9945481192E-40  0.3329417054E-39  0.1338687122E-29  0.2407433135E-30 -0.4630795732E-33 -0.2541818390E-29  0.5775459368E-35  0.0000000000E+00 -0.4155474163E-34  0.1821323420E-35  0.1338781801E-29  0.1338772871E-29  0.2407571210E-30 -0.8574815247E-34 -0.1380741418E-34 -0.4597280512E-33 -0.2541828125E-29 -0.5502874705E-35 -0.3351521990E-35  0.9734804911E-35  0.1127833407E-34 -0.3686436669E-34  0.2609965542E-36  0.1338774231E-29 -0.4690374934E-35  0.1560326866E-35  0.7570597318E-35
51  0.7529337765E-40 -0.5115356408E-39 -0.5467236699E-40 -0.6501064012E-40  0.3022089990E-39  0.1338687126E-29  0.2407433134E-30 -0.4630609983E-33 -0.2541818354E-29  0.5775472103E-35  0.0000000000E+00 -0.4155474351E-34  0.1821327290E-35  0.1338781805E-29  0.1338772875E-29  0.2407571208E-30 -0.8574815242E-34 -0.1380741474E-34 -0.4597094770E-33 -0.2541828089E-29 -0.5502872881E-35 -0.3351521317E-35  0.9734806372E-35  0.1127834498E-34 -0.3686436768E-34  0.2609970857E-36  0.1338774235E-29 -0.4690375830E-35  0.1560330205E-35  0.7570597331E-35
52  0.6271037561E-40 -0.3153813170E-39 -0.2320978481E-40 -0.4952598397E-40  0.2647228939E-39  0.1338687128E-29  0.2407433139E-30 -0.4630454427E-33 -0.2541818325E-29  0.5775482471E-35  0.0000000000E+00 -0.4155474525E-34  0.1821330284E-35  0.1338781807E-29  0.1338772876E-29  0.2407571213E-30 -0.8574815249E-34 -0.1380741547E-34 -0.4596939220E-33 -0.2541828060E-29 -0.5502871310E-35 -0.3351520742E-35  0.9734807706E-35  0.1127835378E-34 -0.3686436843E-34  0.2609975394E-36  0.1338774236E-29 -0.4690376819E-35  0.1560332745E-35  0.7570597298E-35
53  0.5220982387E-40 -0.1839735100E-39 -0.2955742340E-41 -0.4198457223E-40  0.2255978187E-39  0.1338687129E-29  0.2407433145E-30 -0.4630326086E-33 -0.2541818303E-29  0.5775490589E-35  0.0000000000E+00 -0.4155474677E-34  0.1821332554E-35  0.1338781808E-29  0.1338772877E-29  0.2407571219E-30 -0.8574815262E-34 -0.1380741623E-34 -0.4596810883E-33 -0.2541828038E-29 -0.5502869989E-35 -0.3351520268E-35  0.9734808874E-35  0.1127836058E-34 -0.3686436899E-34  0.2609979182E-36  0.1338774237E-29 -0.4690377786E-35  0.1560334636E-35  0.7570597245E-35
54  0.4343887094E-40 -0.9899503824E-40  0.8665755623E-41 -0.3634858395E-40  0.1880382529E-39  0.1338687130E-29  0.2407433152E-30 -0.4630221415E-33 -0.2541818287E-29  0.5775496768E-35  0.0000000000E+00 -0.4155474806E-34  0.1821334256E-35  0.1338781809E-29  0.1338772878E-29  0.2407571226E-30 -0.8574815276E-34 -0.1380741693E-34 -0.4596706216E-33 -0.2541828022E-29 -0.5502868900E-35 -0.3351519885E-35  0.9734809855E-35  0.1127836567E-34 -0.3686436941E-34  0.2609982297E-36  0.1338774238E-29 -0.4690378657E-35  0.1560336026E-35  0.7570597189E-35